
     Program PWSCF v.7.2 starts on 30Jul2023 at  2:16:39 

     This program is part of the open-source Quantum ESPRESSO suite
     for quantum simulation of materials; please cite
         "P. Giannozzi et al., J. Phys.:Condens. Matter 21 395502 (2009);
         "P. Giannozzi et al., J. Phys.:Condens. Matter 29 465901 (2017);
         "P. Giannozzi et al., J. Chem. Phys. 152 154105 (2020);
          URL http://www.quantum-espresso.org", 
     in publications or presentations arising from this work. More details at
     http://www.quantum-espresso.org/quote

     Parallel version (MPI), running on    16 processors

     MPI processes distributed on     1 nodes
     230406 MiB available memory on the printing compute node when the environment starts

     Waiting for input...
     Reading input from standard input
Warning: card &CELL ignored
Warning: card   CELL_DOFREE   = 'IBRAV' ignored
Warning: card / ignored

     Current dimensions of program PWSCF are:
     Max number of different atomic species (ntypx) = 10
     Max number of k-points (npk) =  40000
     Max angular momentum in pseudopotentials (lmaxx) =  4
     file P.pbesol-nl-kjpaw_psl.1.0.0.UPF: wavefunction(s)  3S renormalized
     file Ta.pbesol-spfn-kjpaw_psl.1.0.0.UPF: wavefunction(s)  5S 5P 4F renormalized
     Message from routine setup:
     using ibrav=0 with symmetry is DISCOURAGED, use correct ibrav instead

     R & G space division:  proc/nbgrp/npool/nimage =      16
     Subspace diagonalization in iterative solution of the eigenvalue problem:
     a serial algorithm will be used


     Parallelization info
     --------------------
     sticks:   dense  smooth     PW     G-vecs:    dense   smooth      PW
     Min         280     112     38                 6440     1631     324
     Max         281     113     39                 6441     1633     325
     Sum        4481    1797    615               103055    26105    5191

     Using Slab Decomposition



     bravais-lattice index     =            0
     lattice parameter (alat)  =      11.6627  a.u.
     unit-cell volume          =     414.7770 (a.u.)^3
     number of atoms/cell      =            4
     number of atomic types    =            2
     number of electrons       =        64.00
     number of Kohn-Sham states=           38
     kinetic-energy cutoff     =      60.0000  Ry
     charge density cutoff     =     600.0000  Ry
     scf convergence threshold =      1.0E-07
     mixing beta               =       0.7000
     number of iterations used =            8  plain     mixing
     Exchange-correlation= SLA  PW   PSX  PSC
                           (   1   4  10   8   0   0   0)

     celldm(1)=  11.662672  celldm(2)=   0.000000  celldm(3)=   0.000000
     celldm(4)=   0.000000  celldm(5)=   0.000000  celldm(6)=   0.000000

     crystal axes: (cart. coord. in units of alat)
               a(1) = (   0.987863  -0.000504  -0.000000 )  
               a(2) = (   0.698148   0.698902  -0.000000 )  
               a(3) = (  -0.843006  -0.349199   0.378518 )  

     reciprocal axes: (cart. coord. in units 2 pi/alat)
               b(1) = (  1.011770 -1.010679  1.320942 )  
               b(2) = (  0.000730  1.430087  1.320942 )  
               b(3) = (  0.000000  0.000000  2.641885 )  


     PseudoPot. # 1 for P  read from file:
     ../00_pseudos/P.pbesol-nl-kjpaw_psl.1.0.0.UPF
     MD5 check sum: 34a32345adceda9079e6f2a80f09309f
     Pseudo is Projector augmented-wave + core cor, Zval =  5.0
     Generated using &quot;atomic&quot; code by A. Dal Corso  v.6.3
     Shape of augmentation charge: PSQ
     Using radial grid of 1147 points,  4 beta functions with: 
                l(1) =   0
                l(2) =   0
                l(3) =   1
                l(4) =   1
     Q(r) pseudized with 0 coefficients 


     PseudoPot. # 2 for Ta read from file:
     ../00_pseudos/Ta.pbesol-spfn-kjpaw_psl.1.0.0.UPF
     MD5 check sum: 9c59d8f893fdd73654c81ed7880f9ab2
     Pseudo is Projector augmented-wave + core cor, Zval = 27.0
     Generated using &quot;atomic&quot; code by A. Dal Corso  v.6.3
     Shape of augmentation charge: PSQ
     Using radial grid of 1273 points,  8 beta functions with: 
                l(1) =   0
                l(2) =   0
                l(3) =   1
                l(4) =   1
                l(5) =   2
                l(6) =   2
                l(7) =   3
                l(8) =   3
     Q(r) pseudized with 0 coefficients 


     atomic species   valence    mass     pseudopotential
        P              5.00    30.97300     P ( 1.00)
        Ta            27.00   180.94700     Ta( 1.00)

      2 Sym. Ops. (no inversion) found ( 1 have fractional translation)


                                    s                        frac. trans.

      isym =  1     identity                                     

 cryst.   s( 1) = (     1          0          0      )
                  (     0          1          0      )
                  (     0          0          1      )

 cart.    s( 1) = (  1.0000000  0.0000000  0.0000000 )
                  ( -0.0000000  1.0000000  0.0000000 )
                  (  0.0000000  0.0000000  1.0000000 )


      isym =  2     inv. 180 deg rotation - cart. axis [0,0,1]   

 cryst.   s( 2) = (     1          0          0      )    f =(  0.2500000 )
                  (     0          1          0      )       ( -0.2500000 )
                  (    -1         -1         -1      )       (  0.5000000 )

 cart.    s( 2) = (  1.0000000  0.0000000  0.0000000 )    f =( -0.3490742 )
                  ( -0.0000000  1.0000000  0.0000000 )       ( -0.3494510 )
                  (  0.0000000  0.0000000 -1.0000000 )       (  0.1892588 )


   Cartesian axes

     site n.     atom                  positions (alat units)
         1           Ta  tau(   1) = (   0.7695702   0.5236334   0.1892588  )
         2           Ta  tau(   2) = (   1.2635018   0.5233814   0.0000000  )
         3           P   tau(   3) = (   0.7748165   0.1160992   0.1892589  )
         4           P   tau(   4) = (   0.2808849   0.1163512  -0.0000000  )

   Crystallographic axes

     site n.     atom                  positions (cryst. coord.)
         1           Ta  tau(   1) = (  0.4994026  0.9994027  0.4999999  )
         2           Ta  tau(   2) = (  0.7494028  0.7494029  0.0000001  )
         3           P   tau(   3) = (  0.9165973  0.4165972  0.5000001  )
         4           P   tau(   4) = (  0.1665973  0.1665972 -0.0000001  )

     number of k points=   205  Gaussian smearing, width (Ry)=  0.0100
                       cart. coord. in units 2pi/alat
        k(    1) = (   0.0000000   0.0000000   0.0000000), wk =   0.0027435
        k(    2) = (   0.0000000   0.0000000   0.2935427), wk =   0.0054870
        k(    3) = (   0.0000000   0.0000000   0.5870854), wk =   0.0054870
        k(    4) = (   0.0000000   0.0000000   0.8806282), wk =   0.0054870
        k(    5) = (   0.0000000   0.0000000   1.1741709), wk =   0.0054870
        k(    6) = (   0.0000811   0.1588986   0.1467714), wk =   0.0109739
        k(    7) = (   0.0000811   0.1588986   0.4403141), wk =   0.0109739
        k(    8) = (   0.0000811   0.1588986   0.7338568), wk =   0.0109739
        k(    9) = (   0.0000811   0.1588986   1.0273995), wk =   0.0109739
        k(   10) = (   0.0000811   0.1588986   1.3209423), wk =   0.0054870
        k(   11) = (   0.0001621   0.3177971   0.2935427), wk =   0.0109739
        k(   12) = (   0.0001621   0.3177971   0.5870854), wk =   0.0109739
        k(   13) = (   0.0001621   0.3177971   0.8806282), wk =   0.0109739
        k(   14) = (   0.0001621   0.3177971   1.1741709), wk =   0.0109739
        k(   15) = (   0.0001621   0.3177971   0.0000000), wk =   0.0054870
        k(   16) = (   0.0002432   0.4766957   0.4403141), wk =   0.0109739
        k(   17) = (   0.0002432   0.4766957   0.7338568), wk =   0.0109739
        k(   18) = (   0.0002432   0.4766957   1.0273995), wk =   0.0109739
        k(   19) = (   0.0002432   0.4766957   1.3209423), wk =   0.0054870
        k(   20) = (   0.0002432   0.4766957  -0.1467714), wk =   0.0109739
        k(   21) = (   0.0003242   0.6355942   0.5870855), wk =   0.0109739
        k(   22) = (   0.0003242   0.6355942   0.8806282), wk =   0.0109739
        k(   23) = (   0.0003242   0.6355942   1.1741709), wk =   0.0109739
        k(   24) = (   0.0003242   0.6355942  -0.2935427), wk =   0.0109739
        k(   25) = (   0.0003242   0.6355942   0.0000000), wk =   0.0054870
        k(   26) = (   0.1124189  -0.1122977   0.1467714), wk =   0.0109739
        k(   27) = (   0.1124189  -0.1122977   0.4403141), wk =   0.0109739
        k(   28) = (   0.1124189  -0.1122977   0.7338568), wk =   0.0109739
        k(   29) = (   0.1124189  -0.1122977   1.0273995), wk =   0.0109739
        k(   30) = (   0.1124189  -0.1122977   1.3209423), wk =   0.0054870
        k(   31) = (   0.1125000   0.0466008   0.2935427), wk =   0.0109739
        k(   32) = (   0.1125000   0.0466008   0.5870854), wk =   0.0109739
        k(   33) = (   0.1125000   0.0466008   0.8806282), wk =   0.0109739
        k(   34) = (   0.1125000   0.0466008   1.1741709), wk =   0.0109739
        k(   35) = (   0.1125000   0.0466008   0.0000000), wk =   0.0054870
        k(   36) = (   0.1125810   0.2054994   0.4403141), wk =   0.0109739
        k(   37) = (   0.1125810   0.2054994   0.7338568), wk =   0.0109739
        k(   38) = (   0.1125810   0.2054994   1.0273995), wk =   0.0109739
        k(   39) = (   0.1125810   0.2054994   1.3209423), wk =   0.0054870
        k(   40) = (   0.1125810   0.2054994  -0.1467714), wk =   0.0109739
        k(   41) = (   0.1126621   0.3643980   0.5870854), wk =   0.0109739
        k(   42) = (   0.1126621   0.3643980   0.8806282), wk =   0.0109739
        k(   43) = (   0.1126621   0.3643980   1.1741709), wk =   0.0109739
        k(   44) = (   0.1126621   0.3643980  -0.2935427), wk =   0.0109739
        k(   45) = (   0.1126621   0.3643980   0.0000000), wk =   0.0054870
        k(   46) = (   0.1127432   0.5232965   0.7338568), wk =   0.0109739
        k(   47) = (   0.1127432   0.5232965   1.0273995), wk =   0.0109739
        k(   48) = (   0.1127432   0.5232965   1.3209423), wk =   0.0054870
        k(   49) = (   0.1127432   0.5232965  -0.4403141), wk =   0.0109739
        k(   50) = (   0.1127432   0.5232965  -0.1467714), wk =   0.0109739
        k(   51) = (   0.1120947  -0.7478920  -0.4403141), wk =   0.0109739
        k(   52) = (   0.1120947  -0.7478920  -0.1467714), wk =   0.0109739
        k(   53) = (   0.1120947  -0.7478920   0.7338568), wk =   0.0109739
        k(   54) = (   0.1120947  -0.7478920  -1.6144850), wk =   0.0109739
        k(   55) = (   0.1120947  -0.7478920  -1.3209423), wk =   0.0054870
        k(   56) = (   0.1121757  -0.5889934  -0.2935427), wk =   0.0109739
        k(   57) = (   0.1121757  -0.5889934  -0.0000000), wk =   0.0054870
        k(   58) = (   0.1121757  -0.5889934   0.5870854), wk =   0.0109739
        k(   59) = (   0.1121757  -0.5889934   0.8806282), wk =   0.0109739
        k(   60) = (   0.1121757  -0.5889934  -1.4677136), wk =   0.0109739
        k(   61) = (   0.1122568  -0.4300948  -0.1467714), wk =   0.0109739
        k(   62) = (   0.1122568  -0.4300948   0.4403141), wk =   0.0109739
        k(   63) = (   0.1122568  -0.4300948   0.7338568), wk =   0.0109739
        k(   64) = (   0.1122568  -0.4300948   1.0273995), wk =   0.0109739
        k(   65) = (   0.1122568  -0.4300948  -1.3209423), wk =   0.0054870
        k(   66) = (   0.1123379  -0.2711963  -0.0000000), wk =   0.0054870
        k(   67) = (   0.1123379  -0.2711963   0.2935427), wk =   0.0109739
        k(   68) = (   0.1123379  -0.2711963   0.5870854), wk =   0.0109739
        k(   69) = (   0.1123379  -0.2711963   0.8806282), wk =   0.0109739
        k(   70) = (   0.1123379  -0.2711963   1.1741709), wk =   0.0109739
        k(   71) = (   0.2248379  -0.2245954   0.2935427), wk =   0.0109739
        k(   72) = (   0.2248379  -0.2245954   0.5870854), wk =   0.0109739
        k(   73) = (   0.2248379  -0.2245954   0.8806282), wk =   0.0109739
        k(   74) = (   0.2248379  -0.2245954   1.1741709), wk =   0.0109739
        k(   75) = (   0.2248379  -0.2245954  -0.0000000), wk =   0.0054870
        k(   76) = (   0.2249189  -0.0656969   0.4403141), wk =   0.0109739
        k(   77) = (   0.2249189  -0.0656969   0.7338568), wk =   0.0109739
        k(   78) = (   0.2249189  -0.0656969   1.0273995), wk =   0.0109739
        k(   79) = (   0.2249189  -0.0656969   1.3209423), wk =   0.0054870
        k(   80) = (   0.2249189  -0.0656969  -0.1467714), wk =   0.0109739
        k(   81) = (   0.2250000   0.0932017   0.5870854), wk =   0.0109739
        k(   82) = (   0.2250000   0.0932017   0.8806282), wk =   0.0109739
        k(   83) = (   0.2250000   0.0932017   1.1741709), wk =   0.0109739
        k(   84) = (   0.2250000   0.0932017  -0.2935427), wk =   0.0109739
        k(   85) = (   0.2250000   0.0932017   0.0000000), wk =   0.0054870
        k(   86) = (   0.2250810   0.2521002   0.7338568), wk =   0.0109739
        k(   87) = (   0.2250810   0.2521002   1.0273995), wk =   0.0109739
        k(   88) = (   0.2250810   0.2521002   1.3209423), wk =   0.0054870
        k(   89) = (   0.2250810   0.2521002  -0.4403141), wk =   0.0109739
        k(   90) = (   0.2250810   0.2521002  -0.1467714), wk =   0.0109739
        k(   91) = (   0.2251621   0.4109988   0.8806282), wk =   0.0109739
        k(   92) = (   0.2251621   0.4109988   1.1741709), wk =   0.0109739
        k(   93) = (   0.2251621   0.4109988   2.0547991), wk =   0.0109739
        k(   94) = (   0.2251621   0.4109988  -0.2935427), wk =   0.0109739
        k(   95) = (   0.2251621   0.4109988   0.0000000), wk =   0.0054870
        k(   96) = (   0.2245136  -0.8601897  -0.2935427), wk =   0.0109739
        k(   97) = (   0.2245136  -0.8601897  -0.0000000), wk =   0.0054870
        k(   98) = (   0.2245136  -0.8601897   0.5870854), wk =   0.0109739
        k(   99) = (   0.2245136  -0.8601897   0.8806282), wk =   0.0109739
        k(  100) = (   0.2245136  -0.8601897  -1.4677136), wk =   0.0109739
        k(  101) = (   0.2245947  -0.7012911  -0.1467714), wk =   0.0109739
        k(  102) = (   0.2245947  -0.7012911   0.4403141), wk =   0.0109739
        k(  103) = (   0.2245947  -0.7012911   0.7338568), wk =   0.0109739
        k(  104) = (   0.2245947  -0.7012911   1.0273995), wk =   0.0109739
        k(  105) = (   0.2245947  -0.7012911  -1.3209423), wk =   0.0054870
        k(  106) = (   0.2246757  -0.5423926  -0.0000000), wk =   0.0054870
        k(  107) = (   0.2246757  -0.5423926   0.2935427), wk =   0.0109739
        k(  108) = (   0.2246757  -0.5423926   0.5870854), wk =   0.0109739
        k(  109) = (   0.2246757  -0.5423926   0.8806282), wk =   0.0109739
        k(  110) = (   0.2246757  -0.5423926   1.1741709), wk =   0.0109739
        k(  111) = (   0.2247568  -0.3834940   0.1467714), wk =   0.0109739
        k(  112) = (   0.2247568  -0.3834940   0.4403141), wk =   0.0109739
        k(  113) = (   0.2247568  -0.3834940   0.7338568), wk =   0.0109739
        k(  114) = (   0.2247568  -0.3834940   1.0273995), wk =   0.0109739
        k(  115) = (   0.2247568  -0.3834940   1.3209423), wk =   0.0054870
        k(  116) = (   0.3372568  -0.3368932   0.4403141), wk =   0.0109739
        k(  117) = (   0.3372568  -0.3368932   0.7338568), wk =   0.0109739
        k(  118) = (   0.3372568  -0.3368932   1.0273995), wk =   0.0109739
        k(  119) = (   0.3372568  -0.3368932   1.3209423), wk =   0.0054870
        k(  120) = (   0.3372568  -0.3368932  -0.1467714), wk =   0.0109739
        k(  121) = (   0.3373378  -0.1779946   0.5870854), wk =   0.0109739
        k(  122) = (   0.3373378  -0.1779946   0.8806282), wk =   0.0109739
        k(  123) = (   0.3373378  -0.1779946   1.1741709), wk =   0.0109739
        k(  124) = (   0.3373378  -0.1779946  -0.2935427), wk =   0.0109739
        k(  125) = (   0.3373378  -0.1779946  -0.0000000), wk =   0.0054870
        k(  126) = (   0.3374189  -0.0190960   0.7338568), wk =   0.0109739
        k(  127) = (   0.3374189  -0.0190960   1.0273995), wk =   0.0109739
        k(  128) = (   0.3374189  -0.0190960   1.3209423), wk =   0.0054870
        k(  129) = (   0.3374189  -0.0190960  -0.4403141), wk =   0.0109739
        k(  130) = (   0.3374189  -0.0190960  -0.1467714), wk =   0.0109739
        k(  131) = (   0.3375000   0.1398025   0.8806282), wk =   0.0109739
        k(  132) = (   0.3375000   0.1398025   1.1741709), wk =   0.0109739
        k(  133) = (   0.3375000   0.1398025   2.0547991), wk =   0.0109739
        k(  134) = (   0.3375000   0.1398025  -0.2935427), wk =   0.0109739
        k(  135) = (   0.3375000   0.1398025   0.0000000), wk =   0.0054870
        k(  136) = (   0.3375810   0.2987011   1.0273995), wk =   0.0109739
        k(  137) = (   0.3375810   0.2987011   1.3209423), wk =   0.0054870
        k(  138) = (   0.3375810   0.2987011   1.9080277), wk =   0.0109739
        k(  139) = (   0.3375810   0.2987011   2.2015704), wk =   0.0109739
        k(  140) = (   0.3375810   0.2987011  -0.1467714), wk =   0.0109739
        k(  141) = (   0.3369325  -0.9724874  -0.1467714), wk =   0.0109739
        k(  142) = (   0.3369325  -0.9724874   0.4403141), wk =   0.0109739
        k(  143) = (   0.3369325  -0.9724874   0.7338568), wk =   0.0109739
        k(  144) = (   0.3369325  -0.9724874   1.0273995), wk =   0.0109739
        k(  145) = (   0.3369325  -0.9724874  -1.3209423), wk =   0.0054870
        k(  146) = (   0.3370136  -0.8135889  -0.0000000), wk =   0.0054870
        k(  147) = (   0.3370136  -0.8135889   0.2935427), wk =   0.0109739
        k(  148) = (   0.3370136  -0.8135889   0.5870854), wk =   0.0109739
        k(  149) = (   0.3370136  -0.8135889   0.8806282), wk =   0.0109739
        k(  150) = (   0.3370136  -0.8135889   1.1741709), wk =   0.0109739
        k(  151) = (   0.3370947  -0.6546903   0.1467714), wk =   0.0109739
        k(  152) = (   0.3370947  -0.6546903   0.4403141), wk =   0.0109739
        k(  153) = (   0.3370947  -0.6546903   0.7338568), wk =   0.0109739
        k(  154) = (   0.3370947  -0.6546903   1.0273995), wk =   0.0109739
        k(  155) = (   0.3370947  -0.6546903   1.3209423), wk =   0.0054870
        k(  156) = (   0.3371757  -0.4957917   0.2935427), wk =   0.0109739
        k(  157) = (   0.3371757  -0.4957917   0.5870854), wk =   0.0109739
        k(  158) = (   0.3371757  -0.4957917   0.8806282), wk =   0.0109739
        k(  159) = (   0.3371757  -0.4957917   1.1741709), wk =   0.0109739
        k(  160) = (   0.3371757  -0.4957917  -0.0000000), wk =   0.0054870
        k(  161) = (   0.4496757  -0.4491909   0.5870854), wk =   0.0109739
        k(  162) = (   0.4496757  -0.4491909   0.8806282), wk =   0.0109739
        k(  163) = (   0.4496757  -0.4491909   1.1741709), wk =   0.0109739
        k(  164) = (   0.4496757  -0.4491909  -0.2935427), wk =   0.0109739
        k(  165) = (   0.4496757  -0.4491909  -0.0000000), wk =   0.0054870
        k(  166) = (   0.4497568  -0.2902923   0.7338568), wk =   0.0109739
        k(  167) = (   0.4497568  -0.2902923   1.0273995), wk =   0.0109739
        k(  168) = (   0.4497568  -0.2902923   1.3209423), wk =   0.0054870
        k(  169) = (   0.4497568  -0.2902923  -0.4403141), wk =   0.0109739
        k(  170) = (   0.4497568  -0.2902923  -0.1467714), wk =   0.0109739
        k(  171) = (   0.4498378  -0.1313938   0.8806282), wk =   0.0109739
        k(  172) = (   0.4498378  -0.1313938   1.1741709), wk =   0.0109739
        k(  173) = (   0.4498378  -0.1313938   2.0547991), wk =   0.0109739
        k(  174) = (   0.4498378  -0.1313938  -0.2935427), wk =   0.0109739
        k(  175) = (   0.4498378  -0.1313938  -0.0000000), wk =   0.0054870
        k(  176) = (   0.4499189   0.0275048   1.0273995), wk =   0.0109739
        k(  177) = (   0.4499189   0.0275048   1.3209423), wk =   0.0054870
        k(  178) = (   0.4499189   0.0275048   1.9080277), wk =   0.0109739
        k(  179) = (   0.4499189   0.0275048   2.2015704), wk =   0.0109739
        k(  180) = (   0.4499189   0.0275048  -0.1467714), wk =   0.0109739
        k(  181) = (   0.4499999   0.1864034   1.1741709), wk =   0.0109739
        k(  182) = (   0.4499999   0.1864034   1.7612563), wk =   0.0109739
        k(  183) = (   0.4499999   0.1864034   2.0547991), wk =   0.0109739
        k(  184) = (   0.4499999   0.1864034   2.3483418), wk =   0.0109739
        k(  185) = (   0.4499999   0.1864034   0.0000000), wk =   0.0054870
        k(  186) = (   0.4493515  -1.0847851  -0.0000000), wk =   0.0054870
        k(  187) = (   0.4493515  -1.0847851   0.2935427), wk =   0.0109739
        k(  188) = (   0.4493515  -1.0847851   0.5870854), wk =   0.0109739
        k(  189) = (   0.4493515  -1.0847851   0.8806282), wk =   0.0109739
        k(  190) = (   0.4493515  -1.0847851   1.1741709), wk =   0.0109739
        k(  191) = (   0.4494325  -0.9258866   0.1467714), wk =   0.0109739
        k(  192) = (   0.4494325  -0.9258866   0.4403141), wk =   0.0109739
        k(  193) = (   0.4494325  -0.9258866   0.7338568), wk =   0.0109739
        k(  194) = (   0.4494325  -0.9258866   1.0273995), wk =   0.0109739
        k(  195) = (   0.4494325  -0.9258866   1.3209423), wk =   0.0054870
        k(  196) = (   0.4495136  -0.7669880   0.2935427), wk =   0.0109739
        k(  197) = (   0.4495136  -0.7669880   0.5870854), wk =   0.0109739
        k(  198) = (   0.4495136  -0.7669880   0.8806282), wk =   0.0109739
        k(  199) = (   0.4495136  -0.7669880   1.1741709), wk =   0.0109739
        k(  200) = (   0.4495136  -0.7669880  -0.0000000), wk =   0.0054870
        k(  201) = (   0.4495946  -0.6080895   0.4403141), wk =   0.0109739
        k(  202) = (   0.4495946  -0.6080895   0.7338568), wk =   0.0109739
        k(  203) = (   0.4495946  -0.6080895   1.0273995), wk =   0.0109739
        k(  204) = (   0.4495946  -0.6080895   1.3209423), wk =   0.0054870
        k(  205) = (   0.4495946  -0.6080895  -0.1467714), wk =   0.0109739

                       cryst. coord.
        k(    1) = (   0.0000000   0.0000000   0.0000000), wk =   0.0027435
        k(    2) = (   0.0000000   0.0000000   0.1111111), wk =   0.0054870
        k(    3) = (   0.0000000   0.0000000   0.2222222), wk =   0.0054870
        k(    4) = (   0.0000000   0.0000000   0.3333333), wk =   0.0054870
        k(    5) = (   0.0000000   0.0000000   0.4444444), wk =   0.0054870
        k(    6) = (   0.0000000   0.1111111   0.0000000), wk =   0.0109739
        k(    7) = (   0.0000000   0.1111111   0.1111111), wk =   0.0109739
        k(    8) = (   0.0000000   0.1111111   0.2222222), wk =   0.0109739
        k(    9) = (   0.0000000   0.1111111   0.3333333), wk =   0.0109739
        k(   10) = (   0.0000000   0.1111111   0.4444444), wk =   0.0054870
        k(   11) = (   0.0000000   0.2222222   0.0000000), wk =   0.0109739
        k(   12) = (   0.0000000   0.2222222   0.1111111), wk =   0.0109739
        k(   13) = (   0.0000000   0.2222222   0.2222222), wk =   0.0109739
        k(   14) = (   0.0000000   0.2222222   0.3333333), wk =   0.0109739
        k(   15) = (   0.0000000   0.2222222  -0.1111111), wk =   0.0054870
        k(   16) = (  -0.0000000   0.3333333  -0.0000000), wk =   0.0109739
        k(   17) = (  -0.0000000   0.3333333   0.1111111), wk =   0.0109739
        k(   18) = (  -0.0000000   0.3333333   0.2222222), wk =   0.0109739
        k(   19) = (  -0.0000000   0.3333333   0.3333333), wk =   0.0054870
        k(   20) = (  -0.0000000   0.3333333  -0.2222222), wk =   0.0109739
        k(   21) = (   0.0000000   0.4444444   0.0000000), wk =   0.0109739
        k(   22) = (   0.0000000   0.4444444   0.1111111), wk =   0.0109739
        k(   23) = (   0.0000000   0.4444444   0.2222222), wk =   0.0109739
        k(   24) = (   0.0000000   0.4444444  -0.3333333), wk =   0.0109739
        k(   25) = (   0.0000000   0.4444444  -0.2222222), wk =   0.0054870
        k(   26) = (   0.1111111   0.0000000   0.0000000), wk =   0.0109739
        k(   27) = (   0.1111111   0.0000000   0.1111111), wk =   0.0109739
        k(   28) = (   0.1111111   0.0000000   0.2222222), wk =   0.0109739
        k(   29) = (   0.1111111   0.0000000   0.3333333), wk =   0.0109739
        k(   30) = (   0.1111111   0.0000000   0.4444444), wk =   0.0054870
        k(   31) = (   0.1111111   0.1111111   0.0000000), wk =   0.0109739
        k(   32) = (   0.1111111   0.1111111   0.1111111), wk =   0.0109739
        k(   33) = (   0.1111111   0.1111111   0.2222222), wk =   0.0109739
        k(   34) = (   0.1111111   0.1111111   0.3333333), wk =   0.0109739
        k(   35) = (   0.1111111   0.1111111  -0.1111111), wk =   0.0054870
        k(   36) = (   0.1111111   0.2222222   0.0000000), wk =   0.0109739
        k(   37) = (   0.1111111   0.2222222   0.1111111), wk =   0.0109739
        k(   38) = (   0.1111111   0.2222222   0.2222222), wk =   0.0109739
        k(   39) = (   0.1111111   0.2222222   0.3333333), wk =   0.0054870
        k(   40) = (   0.1111111   0.2222222  -0.2222222), wk =   0.0109739
        k(   41) = (   0.1111111   0.3333333  -0.0000000), wk =   0.0109739
        k(   42) = (   0.1111111   0.3333333   0.1111111), wk =   0.0109739
        k(   43) = (   0.1111111   0.3333333   0.2222222), wk =   0.0109739
        k(   44) = (   0.1111111   0.3333333  -0.3333333), wk =   0.0109739
        k(   45) = (   0.1111111   0.3333333  -0.2222222), wk =   0.0054870
        k(   46) = (   0.1111111   0.4444444   0.0000000), wk =   0.0109739
        k(   47) = (   0.1111111   0.4444444   0.1111111), wk =   0.0109739
        k(   48) = (   0.1111111   0.4444444   0.2222222), wk =   0.0054870
        k(   49) = (   0.1111111   0.4444444  -0.4444444), wk =   0.0109739
        k(   50) = (   0.1111111   0.4444444  -0.3333333), wk =   0.0109739
        k(   51) = (   0.1111111  -0.4444444   0.0000000), wk =   0.0109739
        k(   52) = (   0.1111111  -0.4444444   0.1111111), wk =   0.0109739
        k(   53) = (   0.1111111  -0.4444444   0.4444444), wk =   0.0109739
        k(   54) = (   0.1111111  -0.4444444  -0.4444444), wk =   0.0109739
        k(   55) = (   0.1111111  -0.4444444  -0.3333333), wk =   0.0054870
        k(   56) = (   0.1111111  -0.3333333   0.0000000), wk =   0.0109739
        k(   57) = (   0.1111111  -0.3333333   0.1111111), wk =   0.0054870
        k(   58) = (   0.1111111  -0.3333333   0.3333333), wk =   0.0109739
        k(   59) = (   0.1111111  -0.3333333   0.4444444), wk =   0.0109739
        k(   60) = (   0.1111111  -0.3333333  -0.4444444), wk =   0.0109739
        k(   61) = (   0.1111111  -0.2222222   0.0000000), wk =   0.0109739
        k(   62) = (   0.1111111  -0.2222222   0.2222222), wk =   0.0109739
        k(   63) = (   0.1111111  -0.2222222   0.3333333), wk =   0.0109739
        k(   64) = (   0.1111111  -0.2222222   0.4444444), wk =   0.0109739
        k(   65) = (   0.1111111  -0.2222222  -0.4444444), wk =   0.0054870
        k(   66) = (   0.1111111  -0.1111111  -0.0000000), wk =   0.0054870
        k(   67) = (   0.1111111  -0.1111111   0.1111111), wk =   0.0109739
        k(   68) = (   0.1111111  -0.1111111   0.2222222), wk =   0.0109739
        k(   69) = (   0.1111111  -0.1111111   0.3333333), wk =   0.0109739
        k(   70) = (   0.1111111  -0.1111111   0.4444444), wk =   0.0109739
        k(   71) = (   0.2222222   0.0000000   0.0000000), wk =   0.0109739
        k(   72) = (   0.2222222   0.0000000   0.1111111), wk =   0.0109739
        k(   73) = (   0.2222222   0.0000000   0.2222222), wk =   0.0109739
        k(   74) = (   0.2222222   0.0000000   0.3333333), wk =   0.0109739
        k(   75) = (   0.2222222   0.0000000  -0.1111111), wk =   0.0054870
        k(   76) = (   0.2222222   0.1111111   0.0000000), wk =   0.0109739
        k(   77) = (   0.2222222   0.1111111   0.1111111), wk =   0.0109739
        k(   78) = (   0.2222222   0.1111111   0.2222222), wk =   0.0109739
        k(   79) = (   0.2222222   0.1111111   0.3333333), wk =   0.0054870
        k(   80) = (   0.2222222   0.1111111  -0.2222222), wk =   0.0109739
        k(   81) = (   0.2222222   0.2222222   0.0000000), wk =   0.0109739
        k(   82) = (   0.2222222   0.2222222   0.1111111), wk =   0.0109739
        k(   83) = (   0.2222222   0.2222222   0.2222222), wk =   0.0109739
        k(   84) = (   0.2222222   0.2222222  -0.3333333), wk =   0.0109739
        k(   85) = (   0.2222222   0.2222222  -0.2222222), wk =   0.0054870
        k(   86) = (   0.2222222   0.3333333   0.0000000), wk =   0.0109739
        k(   87) = (   0.2222222   0.3333333   0.1111111), wk =   0.0109739
        k(   88) = (   0.2222222   0.3333333   0.2222222), wk =   0.0054870
        k(   89) = (   0.2222222   0.3333333  -0.4444444), wk =   0.0109739
        k(   90) = (   0.2222222   0.3333333  -0.3333333), wk =   0.0109739
        k(   91) = (   0.2222222   0.4444444   0.0000000), wk =   0.0109739
        k(   92) = (   0.2222222   0.4444444   0.1111111), wk =   0.0109739
        k(   93) = (   0.2222222   0.4444444   0.4444444), wk =   0.0109739
        k(   94) = (   0.2222222   0.4444444  -0.4444444), wk =   0.0109739
        k(   95) = (   0.2222222   0.4444444  -0.3333333), wk =   0.0054870
        k(   96) = (   0.2222222  -0.4444444   0.0000000), wk =   0.0109739
        k(   97) = (   0.2222222  -0.4444444   0.1111111), wk =   0.0054870
        k(   98) = (   0.2222222  -0.4444444   0.3333333), wk =   0.0109739
        k(   99) = (   0.2222222  -0.4444444   0.4444444), wk =   0.0109739
        k(  100) = (   0.2222222  -0.4444444  -0.4444444), wk =   0.0109739
        k(  101) = (   0.2222222  -0.3333333  -0.0000000), wk =   0.0109739
        k(  102) = (   0.2222222  -0.3333333   0.2222222), wk =   0.0109739
        k(  103) = (   0.2222222  -0.3333333   0.3333333), wk =   0.0109739
        k(  104) = (   0.2222222  -0.3333333   0.4444444), wk =   0.0109739
        k(  105) = (   0.2222222  -0.3333333  -0.4444444), wk =   0.0054870
        k(  106) = (   0.2222222  -0.2222222   0.0000000), wk =   0.0054870
        k(  107) = (   0.2222222  -0.2222222   0.1111111), wk =   0.0109739
        k(  108) = (   0.2222222  -0.2222222   0.2222222), wk =   0.0109739
        k(  109) = (   0.2222222  -0.2222222   0.3333333), wk =   0.0109739
        k(  110) = (   0.2222222  -0.2222222   0.4444444), wk =   0.0109739
        k(  111) = (   0.2222222  -0.1111111   0.0000000), wk =   0.0109739
        k(  112) = (   0.2222222  -0.1111111   0.1111111), wk =   0.0109739
        k(  113) = (   0.2222222  -0.1111111   0.2222222), wk =   0.0109739
        k(  114) = (   0.2222222  -0.1111111   0.3333333), wk =   0.0109739
        k(  115) = (   0.2222222  -0.1111111   0.4444444), wk =   0.0054870
        k(  116) = (   0.3333333   0.0000000  -0.0000000), wk =   0.0109739
        k(  117) = (   0.3333333   0.0000000   0.1111111), wk =   0.0109739
        k(  118) = (   0.3333333   0.0000000   0.2222222), wk =   0.0109739
        k(  119) = (   0.3333333   0.0000000   0.3333333), wk =   0.0054870
        k(  120) = (   0.3333333   0.0000000  -0.2222222), wk =   0.0109739
        k(  121) = (   0.3333333   0.1111111   0.0000000), wk =   0.0109739
        k(  122) = (   0.3333333   0.1111111   0.1111111), wk =   0.0109739
        k(  123) = (   0.3333333   0.1111111   0.2222222), wk =   0.0109739
        k(  124) = (   0.3333333   0.1111111  -0.3333333), wk =   0.0109739
        k(  125) = (   0.3333333   0.1111111  -0.2222222), wk =   0.0054870
        k(  126) = (   0.3333333   0.2222222   0.0000000), wk =   0.0109739
        k(  127) = (   0.3333333   0.2222222   0.1111111), wk =   0.0109739
        k(  128) = (   0.3333333   0.2222222   0.2222222), wk =   0.0054870
        k(  129) = (   0.3333333   0.2222222  -0.4444444), wk =   0.0109739
        k(  130) = (   0.3333333   0.2222222  -0.3333333), wk =   0.0109739
        k(  131) = (   0.3333333   0.3333333  -0.0000000), wk =   0.0109739
        k(  132) = (   0.3333333   0.3333333   0.1111111), wk =   0.0109739
        k(  133) = (   0.3333333   0.3333333   0.4444444), wk =   0.0109739
        k(  134) = (   0.3333333   0.3333333  -0.4444444), wk =   0.0109739
        k(  135) = (   0.3333333   0.3333333  -0.3333333), wk =   0.0054870
        k(  136) = (   0.3333333   0.4444444   0.0000000), wk =   0.0109739
        k(  137) = (   0.3333333   0.4444444   0.1111111), wk =   0.0054870
        k(  138) = (   0.3333333   0.4444444   0.3333333), wk =   0.0109739
        k(  139) = (   0.3333333   0.4444444   0.4444444), wk =   0.0109739
        k(  140) = (   0.3333333   0.4444444  -0.4444444), wk =   0.0109739
        k(  141) = (   0.3333333  -0.4444444  -0.0000000), wk =   0.0109739
        k(  142) = (   0.3333333  -0.4444444   0.2222222), wk =   0.0109739
        k(  143) = (   0.3333333  -0.4444444   0.3333333), wk =   0.0109739
        k(  144) = (   0.3333333  -0.4444444   0.4444444), wk =   0.0109739
        k(  145) = (   0.3333333  -0.4444444  -0.4444444), wk =   0.0054870
        k(  146) = (   0.3333333  -0.3333333   0.0000000), wk =   0.0054870
        k(  147) = (   0.3333333  -0.3333333   0.1111111), wk =   0.0109739
        k(  148) = (   0.3333333  -0.3333333   0.2222222), wk =   0.0109739
        k(  149) = (   0.3333333  -0.3333333   0.3333333), wk =   0.0109739
        k(  150) = (   0.3333333  -0.3333333   0.4444444), wk =   0.0109739
        k(  151) = (   0.3333333  -0.2222222  -0.0000000), wk =   0.0109739
        k(  152) = (   0.3333333  -0.2222222   0.1111111), wk =   0.0109739
        k(  153) = (   0.3333333  -0.2222222   0.2222222), wk =   0.0109739
        k(  154) = (   0.3333333  -0.2222222   0.3333333), wk =   0.0109739
        k(  155) = (   0.3333333  -0.2222222   0.4444444), wk =   0.0054870
        k(  156) = (   0.3333333  -0.1111111   0.0000000), wk =   0.0109739
        k(  157) = (   0.3333333  -0.1111111   0.1111111), wk =   0.0109739
        k(  158) = (   0.3333333  -0.1111111   0.2222222), wk =   0.0109739
        k(  159) = (   0.3333333  -0.1111111   0.3333333), wk =   0.0109739
        k(  160) = (   0.3333333  -0.1111111  -0.1111111), wk =   0.0054870
        k(  161) = (   0.4444444   0.0000000   0.0000000), wk =   0.0109739
        k(  162) = (   0.4444444   0.0000000   0.1111111), wk =   0.0109739
        k(  163) = (   0.4444444   0.0000000   0.2222222), wk =   0.0109739
        k(  164) = (   0.4444444   0.0000000  -0.3333333), wk =   0.0109739
        k(  165) = (   0.4444444   0.0000000  -0.2222222), wk =   0.0054870
        k(  166) = (   0.4444444   0.1111111   0.0000000), wk =   0.0109739
        k(  167) = (   0.4444444   0.1111111   0.1111111), wk =   0.0109739
        k(  168) = (   0.4444444   0.1111111   0.2222222), wk =   0.0054870
        k(  169) = (   0.4444444   0.1111111  -0.4444444), wk =   0.0109739
        k(  170) = (   0.4444444   0.1111111  -0.3333333), wk =   0.0109739
        k(  171) = (   0.4444444   0.2222222   0.0000000), wk =   0.0109739
        k(  172) = (   0.4444444   0.2222222   0.1111111), wk =   0.0109739
        k(  173) = (   0.4444444   0.2222222   0.4444444), wk =   0.0109739
        k(  174) = (   0.4444444   0.2222222  -0.4444444), wk =   0.0109739
        k(  175) = (   0.4444444   0.2222222  -0.3333333), wk =   0.0054870
        k(  176) = (   0.4444444   0.3333333  -0.0000000), wk =   0.0109739
        k(  177) = (   0.4444444   0.3333333   0.1111111), wk =   0.0054870
        k(  178) = (   0.4444444   0.3333333   0.3333333), wk =   0.0109739
        k(  179) = (   0.4444444   0.3333333   0.4444444), wk =   0.0109739
        k(  180) = (   0.4444444   0.3333333  -0.4444444), wk =   0.0109739
        k(  181) = (   0.4444444   0.4444444   0.0000000), wk =   0.0109739
        k(  182) = (   0.4444444   0.4444444   0.2222222), wk =   0.0109739
        k(  183) = (   0.4444444   0.4444444   0.3333333), wk =   0.0109739
        k(  184) = (   0.4444444   0.4444444   0.4444444), wk =   0.0109739
        k(  185) = (   0.4444444   0.4444444  -0.4444444), wk =   0.0054870
        k(  186) = (   0.4444444  -0.4444444   0.0000000), wk =   0.0054870
        k(  187) = (   0.4444444  -0.4444444   0.1111111), wk =   0.0109739
        k(  188) = (   0.4444444  -0.4444444   0.2222222), wk =   0.0109739
        k(  189) = (   0.4444444  -0.4444444   0.3333333), wk =   0.0109739
        k(  190) = (   0.4444444  -0.4444444   0.4444444), wk =   0.0109739
        k(  191) = (   0.4444444  -0.3333333   0.0000000), wk =   0.0109739
        k(  192) = (   0.4444444  -0.3333333   0.1111111), wk =   0.0109739
        k(  193) = (   0.4444444  -0.3333333   0.2222222), wk =   0.0109739
        k(  194) = (   0.4444444  -0.3333333   0.3333333), wk =   0.0109739
        k(  195) = (   0.4444444  -0.3333333   0.4444444), wk =   0.0054870
        k(  196) = (   0.4444444  -0.2222222   0.0000000), wk =   0.0109739
        k(  197) = (   0.4444444  -0.2222222   0.1111111), wk =   0.0109739
        k(  198) = (   0.4444444  -0.2222222   0.2222222), wk =   0.0109739
        k(  199) = (   0.4444444  -0.2222222   0.3333333), wk =   0.0109739
        k(  200) = (   0.4444444  -0.2222222  -0.1111111), wk =   0.0054870
        k(  201) = (   0.4444444  -0.1111111  -0.0000000), wk =   0.0109739
        k(  202) = (   0.4444444  -0.1111111   0.1111111), wk =   0.0109739
        k(  203) = (   0.4444444  -0.1111111   0.2222222), wk =   0.0109739
        k(  204) = (   0.4444444  -0.1111111   0.3333333), wk =   0.0054870
        k(  205) = (   0.4444444  -0.1111111  -0.2222222), wk =   0.0109739

     Dense  grid:   103055 G-vectors     FFT dimensions: (  96,  96,  90)

     Smooth grid:    26105 G-vectors     FFT dimensions: (  60,  60,  60)

     Dynamical RAM for                 wfc:       0.12 MB

     Dynamical RAM for     wfc (w. buffer):      24.25 MB

     Dynamical RAM for           str. fact:       0.20 MB

     Dynamical RAM for           local pot:       0.00 MB

     Dynamical RAM for          nlocal pot:       0.25 MB

     Dynamical RAM for                qrad:       9.43 MB

     Dynamical RAM for          rho,v,vnew:       1.56 MB

     Dynamical RAM for               rhoin:       0.52 MB

     Dynamical RAM for            rho*nmix:       1.57 MB

     Dynamical RAM for           G-vectors:       0.38 MB

     Dynamical RAM for          h,s,v(r/c):       0.26 MB

     Dynamical RAM for          <psi|beta>:       0.05 MB

     Dynamical RAM for                 psi:       0.24 MB

     Dynamical RAM for                hpsi:       0.24 MB

     Dynamical RAM for                spsi:       0.24 MB

     Dynamical RAM for      wfcinit/wfcrot:       0.30 MB

     Dynamical RAM for           addusdens:      54.74 MB

     Estimated static dynamical RAM per process >      38.99 MB

     Estimated max dynamical RAM per process >      95.31 MB

     Estimated total dynamical RAM >       1.49 GB

     Initial potential from superposition of free atoms

     starting charge      63.9981, renormalised to      64.0000
     Starting wfcs are   42 randomized atomic wfcs
     Checking if some PAW data can be deallocated... 
       PAW data deallocated on    8 nodes for type:  1
       PAW data deallocated on    8 nodes for type:  2

     total cpu time spent up to now is        8.0 secs

     Self-consistent Calculation

     iteration #  1     ecut=    60.00 Ry     beta= 0.70
     Davidson diagonalization with overlap

---- Real-time Memory Report at c_bands before calling an iterative solver
           135 MiB given to the printing process from OS
             0 MiB allocation reported by mallinfo(arena+hblkhd)
        229455 MiB available memory on the node where the printing process lives
------------------
     ethr =  1.00E-02,  avg # of iterations =  3.1

     Threshold (ethr) on eigenvalues was too large:
     Diagonalizing with lowered threshold

     Davidson diagonalization with overlap

---- Real-time Memory Report at c_bands before calling an iterative solver
           180 MiB given to the printing process from OS
             0 MiB allocation reported by mallinfo(arena+hblkhd)
        229363 MiB available memory on the node where the printing process lives
------------------
     ethr =  1.73E-04,  avg # of iterations =  5.6

     total cpu time spent up to now is       47.3 secs

     total energy              =   -2549.08155427 Ry
     estimated scf accuracy    <       0.12984401 Ry

     iteration #  2     ecut=    60.00 Ry     beta= 0.70
     Davidson diagonalization with overlap

---- Real-time Memory Report at c_bands before calling an iterative solver
           184 MiB given to the printing process from OS
             0 MiB allocation reported by mallinfo(arena+hblkhd)
        229333 MiB available memory on the node where the printing process lives
------------------
     ethr =  2.03E-04,  avg # of iterations =  3.0

     total cpu time spent up to now is       69.4 secs

     total energy              =   -2549.10929224 Ry
     estimated scf accuracy    <       0.11866478 Ry

     iteration #  3     ecut=    60.00 Ry     beta= 0.70
     Davidson diagonalization with overlap

---- Real-time Memory Report at c_bands before calling an iterative solver
           187 MiB given to the printing process from OS
             0 MiB allocation reported by mallinfo(arena+hblkhd)
        229331 MiB available memory on the node where the printing process lives
------------------
     ethr =  1.85E-04,  avg # of iterations =  2.2

     total cpu time spent up to now is       85.7 secs

     total energy              =   -2549.13309834 Ry
     estimated scf accuracy    <       0.00070906 Ry

     iteration #  4     ecut=    60.00 Ry     beta= 0.70
     Davidson diagonalization with overlap

---- Real-time Memory Report at c_bands before calling an iterative solver
           188 MiB given to the printing process from OS
             0 MiB allocation reported by mallinfo(arena+hblkhd)
        229328 MiB available memory on the node where the printing process lives
------------------
     c_bands:  1 eigenvalues not converged
     c_bands:  1 eigenvalues not converged
     c_bands:  1 eigenvalues not converged
     c_bands:  1 eigenvalues not converged
     c_bands:  1 eigenvalues not converged
     c_bands:  1 eigenvalues not converged
     c_bands:  1 eigenvalues not converged
     ethr =  1.11E-06,  avg # of iterations =  8.2

     total cpu time spent up to now is      116.3 secs

     total energy              =   -2549.13353551 Ry
     estimated scf accuracy    <       0.00100895 Ry

     iteration #  5     ecut=    60.00 Ry     beta= 0.70
     Davidson diagonalization with overlap

---- Real-time Memory Report at c_bands before calling an iterative solver
           190 MiB given to the printing process from OS
             0 MiB allocation reported by mallinfo(arena+hblkhd)
        229325 MiB available memory on the node where the printing process lives
------------------
     ethr =  1.11E-06,  avg # of iterations =  2.9

     total cpu time spent up to now is      134.0 secs

     total energy              =   -2549.13376368 Ry
     estimated scf accuracy    <       0.00000543 Ry

     iteration #  6     ecut=    60.00 Ry     beta= 0.70
     Davidson diagonalization with overlap

---- Real-time Memory Report at c_bands before calling an iterative solver
           191 MiB given to the printing process from OS
             0 MiB allocation reported by mallinfo(arena+hblkhd)
        229325 MiB available memory on the node where the printing process lives
------------------
     ethr =  8.49E-09,  avg # of iterations =  4.5

     total cpu time spent up to now is      156.5 secs

     total energy              =   -2549.13376622 Ry
     estimated scf accuracy    <       0.00000137 Ry

     iteration #  7     ecut=    60.00 Ry     beta= 0.70
     Davidson diagonalization with overlap

---- Real-time Memory Report at c_bands before calling an iterative solver
           191 MiB given to the printing process from OS
             0 MiB allocation reported by mallinfo(arena+hblkhd)
        229321 MiB available memory on the node where the printing process lives
------------------
     ethr =  2.14E-09,  avg # of iterations =  2.7

     total cpu time spent up to now is      173.7 secs

     End of self-consistent calculation

          k = 0.0000 0.0000 0.0000 (  3227 PWs)   bands (ev):

   -49.6825 -49.6640 -16.3639 -16.1935 -16.1935 -16.0445 -16.0445 -15.9934
    -1.4332  -1.4301  -1.4256  -1.4256  -1.4219  -1.4219  -1.4155  -1.4155
    -1.4155  -1.4061  -1.4003  -1.3914  -1.3842  -1.3842   4.4664   7.3961
    11.1578  14.8539  15.7356  15.7505  15.7505  16.2906  16.6789  16.6789
    19.3519  20.3575  20.9736  21.6054  21.7486  21.7486

     occupation numbers 
     1.0000   1.0000   1.0000   1.0000   1.0000   1.0000   1.0000   1.0000
     1.0000   1.0000   1.0000   1.0000   1.0000   1.0000   1.0000   1.0000
     1.0000   1.0000   1.0000   1.0000   1.0000   1.0000   1.0000   1.0000
     1.0000   1.0000   1.0000   1.0000   1.0000   1.0000   1.0000   1.0000
     0.0000   0.0000   0.0000   0.0000   0.0000   0.0000

          k = 0.0000 0.0000 0.2935 (  3251 PWs)   bands (ev):

   -49.6800 -49.6627 -16.3496 -16.2241 -16.2160 -16.0748 -16.0674 -15.9918
    -1.4318  -1.4291  -1.4255  -1.4255  -1.4225  -1.4225  -1.4170  -1.4162
    -1.4151  -1.4073  -1.3987  -1.3907  -1.3853  -1.3853   4.8441   7.5442
    11.3511  14.3061  15.2530  15.3412  15.3758  16.2214  16.9156  17.0974
    18.8009  19.4146  20.9920  21.3901  22.0944  22.4933

     occupation numbers 
     1.0000   1.0000   1.0000   1.0000   1.0000   1.0000   1.0000   1.0000
     1.0000   1.0000   1.0000   1.0000   1.0000   1.0000   1.0000   1.0000
     1.0000   1.0000   1.0000   1.0000   1.0000   1.0000   1.0000   1.0000
     1.0000   1.0000   1.0000   1.0000   1.0000   1.0000   1.0000   1.0000
     0.0000   0.0000   0.0000   0.0000   0.0000   0.0000

          k = 0.0000 0.0000 0.5871 (  3243 PWs)   bands (ev):

   -49.6737 -49.6596 -16.3320 -16.2969 -16.2517 -16.1409 -16.1211 -15.9999
    -1.4280  -1.4273  -1.4268  -1.4247  -1.4235  -1.4227  -1.4182  -1.4166
    -1.4153  -1.4092  -1.3950  -1.3891  -1.3875  -1.3871   5.8330   7.7820
    12.0954  13.0334  13.7837  14.6338  14.7569  16.2918  17.3504  17.6207
    18.3935  19.1201  20.4846  22.1263  22.7423  23.1770

     occupation numbers 
     1.0000   1.0000   1.0000   1.0000   1.0000   1.0000   1.0000   1.0000
     1.0000   1.0000   1.0000   1.0000   1.0000   1.0000   1.0000   1.0000
     1.0000   1.0000   1.0000   1.0000   1.0000   1.0000   1.0000   1.0000
     1.0000   1.0000   1.0000   1.0000   1.0000   1.0000   1.0000   1.0000
     0.1945   0.0000   0.0000   0.0000   0.0000   0.0000

          k = 0.0000 0.0000 0.8806 (  3251 PWs)   bands (ev):

   -49.6658 -49.6567 -16.3754 -16.3726 -16.2379 -16.2077 -16.1575 -16.0247
    -1.4304  -1.4290  -1.4241  -1.4232  -1.4217  -1.4217  -1.4195  -1.4169
    -1.4141  -1.4111  -1.3927  -1.3910  -1.3880  -1.3859   6.9387   7.8313
    12.0776  12.3874  13.7001  14.1022  14.3727  15.4059  17.1632  17.5730
    19.4311  20.6344  20.6811  22.4440  23.0261  23.2858

     occupation numbers 
     1.0000   1.0000   1.0000   1.0000   1.0000   1.0000   1.0000   1.0000
     1.0000   1.0000   1.0000   1.0000   1.0000   1.0000   1.0000   1.0000
     1.0000   1.0000   1.0000   1.0000   1.0000   1.0000   1.0000   1.0000
     1.0000   1.0000   1.0000   1.0000   1.0000   1.0000   1.0000   1.0000
     0.0000   0.0000   0.0000   0.0000   0.0000   0.0000

          k = 0.0000 0.0000 1.1742 (  3246 PWs)   bands (ev):

   -49.6594 -49.6562 -16.4177 -16.4169 -16.2510 -16.2479 -16.1198 -16.0663
    -1.4323  -1.4318  -1.4220  -1.4213  -1.4209  -1.4209  -1.4196  -1.4180
    -1.4121  -1.4112  -1.3930  -1.3927  -1.3859  -1.3849   7.5017   7.6917
    12.2446  12.5156  13.0881  13.5599  14.9014  15.0519  17.0098  17.6033
    21.1443  21.6264  21.6860  22.4302  22.5127  23.1791

     occupation numbers 
     1.0000   1.0000   1.0000   1.0000   1.0000   1.0000   1.0000   1.0000
     1.0000   1.0000   1.0000   1.0000   1.0000   1.0000   1.0000   1.0000
     1.0000   1.0000   1.0000   1.0000   1.0000   1.0000   1.0000   1.0000
     1.0000   1.0000   1.0000   1.0000   1.0000   1.0000   1.0000   1.0000
     0.0000   0.0000   0.0000   0.0000   0.0000   0.0000

          k = 0.0001 0.1589 0.1468 (  3246 PWs)   bands (ev):

   -49.6811 -49.6635 -16.3541 -16.2230 -16.1911 -16.0740 -16.0414 -15.9954
    -1.4328  -1.4296  -1.4265  -1.4245  -1.4234  -1.4210  -1.4164  -1.4163
    -1.4148  -1.4069  -1.3994  -1.3911  -1.3853  -1.3841   4.6734   7.4370
    11.2843  14.5439  15.2436  15.6209  15.9457  16.1592  16.6121  16.9181
    19.1012  19.9518  20.8060  21.2098  21.9664  22.2047

     occupation numbers 
     1.0000   1.0000   1.0000   1.0000   1.0000   1.0000   1.0000   1.0000
     1.0000   1.0000   1.0000   1.0000   1.0000   1.0000   1.0000   1.0000
     1.0000   1.0000   1.0000   1.0000   1.0000   1.0000   1.0000   1.0000
     1.0000   1.0000   1.0000   1.0000   1.0000   1.0000   1.0000   1.0000
     0.0000   0.0000   0.0000   0.0000   0.0000   0.0000

          k = 0.0001 0.1589 0.4403 (  3252 PWs)   bands (ev):

   -49.6767 -49.6613 -16.3411 -16.2807 -16.2124 -16.1403 -16.0628 -15.9982
    -1.4309  -1.4283  -1.4272  -1.4255  -1.4231  -1.4204  -1.4181  -1.4164
    -1.4147  -1.4084  -1.3968  -1.3895  -1.3879  -1.3849   5.3836   7.6624
    11.6509  13.7198  14.0249  14.9482  15.4909  16.3957  16.9837  17.4858
    18.6467  19.0075  20.5255  21.5322  22.0950  22.5483

     occupation numbers 
     1.0000   1.0000   1.0000   1.0000   1.0000   1.0000   1.0000   1.0000
     1.0000   1.0000   1.0000   1.0000   1.0000   1.0000   1.0000   1.0000
     1.0000   1.0000   1.0000   1.0000   1.0000   1.0000   1.0000   1.0000
     1.0000   1.0000   1.0000   1.0000   1.0000   1.0000   1.0000   1.0000
     0.0002   0.0000   0.0000   0.0000   0.0000   0.0000

          k = 0.0001 0.1589 0.7339 (  3248 PWs)   bands (ev):

   -49.6696 -49.6582 -16.3873 -16.3003 -16.2456 -16.1972 -16.1178 -16.0139
    -1.4305  -1.4280  -1.4260  -1.4255  -1.4225  -1.4196  -1.4186  -1.4168
    -1.4143  -1.4103  -1.3938  -1.3901  -1.3880  -1.3862   6.4960   7.8095
    12.0077  12.7891  13.3592  14.0893  14.9706  15.9198  17.2167  17.5733
    18.7602  19.9288  20.6495  22.1058  22.5704  22.9848

     occupation numbers 
     1.0000   1.0000   1.0000   1.0000   1.0000   1.0000   1.0000   1.0000
     1.0000   1.0000   1.0000   1.0000   1.0000   1.0000   1.0000   1.0000
     1.0000   1.0000   1.0000   1.0000   1.0000   1.0000   1.0000   1.0000
     1.0000   1.0000   1.0000   1.0000   1.0000   1.0000   1.0000   1.0000
     0.0000   0.0000   0.0000   0.0000   0.0000   0.0000

          k = 0.0001 0.1589 1.0274 (  3253 PWs)   bands (ev):

   -49.6626 -49.6565 -16.4261 -16.3663 -16.2582 -16.2111 -16.1411 -16.0462
    -1.4325  -1.4295  -1.4247  -1.4228  -1.4206  -1.4199  -1.4192  -1.4175
    -1.4133  -1.4111  -1.3934  -1.3911  -1.3873  -1.3851   7.3353   7.7397
    11.8450  12.4786  13.3666  13.9705  14.8201  15.1291  16.9851  17.5795
    20.1480  21.0800  21.3563  22.3178  22.4339  23.1761

     occupation numbers 
     1.0000   1.0000   1.0000   1.0000   1.0000   1.0000   1.0000   1.0000
     1.0000   1.0000   1.0000   1.0000   1.0000   1.0000   1.0000   1.0000
     1.0000   1.0000   1.0000   1.0000   1.0000   1.0000   1.0000   1.0000
     1.0000   1.0000   1.0000   1.0000   1.0000   1.0000   1.0000   1.0000
     0.0000   0.0000   0.0000   0.0000   0.0000   0.0000

          k = 0.0001 0.1589 1.3209 (  3250 PWs)   bands (ev):

   -49.6581 -49.6575 -16.4181 -16.4174 -16.2497 -16.2480 -16.0977 -16.0890
    -1.4321  -1.4321  -1.4220  -1.4216  -1.4209  -1.4205  -1.4190  -1.4188
    -1.4118  -1.4116  -1.3929  -1.3928  -1.3854  -1.3853   7.5761   7.6109
    12.4371  12.4610  13.1865  13.1888  15.0712  15.0815  17.1981  17.2781
    21.4319  21.5247  21.8601  21.9570  22.7687  22.8211

     occupation numbers 
     1.0000   1.0000   1.0000   1.0000   1.0000   1.0000   1.0000   1.0000
     1.0000   1.0000   1.0000   1.0000   1.0000   1.0000   1.0000   1.0000
     1.0000   1.0000   1.0000   1.0000   1.0000   1.0000   1.0000   1.0000
     1.0000   1.0000   1.0000   1.0000   1.0000   1.0000   1.0000   1.0000
     0.0000   0.0000   0.0000   0.0000   0.0000   0.0000

          k = 0.0002 0.3178 0.2935 (  3267 PWs)   bands (ev):

   -49.6776 -49.6623 -16.3430 -16.2823 -16.1852 -16.1423 -16.0334 -16.0069
    -1.4324  -1.4293  -1.4277  -1.4261  -1.4222  -1.4191  -1.4184  -1.4161
    -1.4144  -1.4082  -1.3975  -1.3899  -1.3880  -1.3838   5.2587   7.5287
    11.5636  13.7088  14.2891  15.3181  16.1612  16.3104  16.3185  17.4667
    18.7608  19.6555  20.1147  20.8619  21.9107  22.7313

     occupation numbers 
     1.0000   1.0000   1.0000   1.0000   1.0000   1.0000   1.0000   1.0000
     1.0000   1.0000   1.0000   1.0000   1.0000   1.0000   1.0000   1.0000
     1.0000   1.0000   1.0000   1.0000   1.0000   1.0000   1.0000   1.0000
     1.0000   1.0000   1.0000   1.0000   1.0000   1.0000   1.0000   1.0000
     0.0000   0.0000   0.0000   0.0000   0.0000   0.0000

          k = 0.0002 0.3178 0.5871 (  3257 PWs)   bands (ev):

   -49.6725 -49.6601 -16.3989 -16.2814 -16.2100 -16.2002 -16.0548 -16.0150
    -1.4320  -1.4314  -1.4294  -1.4232  -1.4220  -1.4194  -1.4171  -1.4160
    -1.4135  -1.4094  -1.3954  -1.3905  -1.3876  -1.3845   6.1820   7.7064
    11.7485  12.6314  13.7350  14.5470  15.6000  16.3384  16.7753  17.6197
    18.7918  19.4232  20.6694  21.4390  21.8228  22.5504

     occupation numbers 
     1.0000   1.0000   1.0000   1.0000   1.0000   1.0000   1.0000   1.0000
     1.0000   1.0000   1.0000   1.0000   1.0000   1.0000   1.0000   1.0000
     1.0000   1.0000   1.0000   1.0000   1.0000   1.0000   1.0000   1.0000
     1.0000   1.0000   1.0000   1.0000   1.0000   1.0000   1.0000   1.0000
     0.0000   0.0000   0.0000   0.0000   0.0000   0.0000

          k = 0.0002 0.3178 0.8806 (  3258 PWs)   bands (ev):

   -49.6663 -49.6581 -16.4398 -16.2966 -16.2629 -16.1938 -16.1101 -16.0359
    -1.4332  -1.4292  -1.4272  -1.4252  -1.4206  -1.4189  -1.4174  -1.4167
    -1.4138  -1.4105  -1.3942  -1.3900  -1.3877  -1.3852   7.1446   7.6919
    11.5054  12.3831  13.5790  14.1299  15.2351  15.4819  17.1266  17.2735
    19.3415  20.7229  21.2903  21.8183  22.3116  22.8184

     occupation numbers 
     1.0000   1.0000   1.0000   1.0000   1.0000   1.0000   1.0000   1.0000
     1.0000   1.0000   1.0000   1.0000   1.0000   1.0000   1.0000   1.0000
     1.0000   1.0000   1.0000   1.0000   1.0000   1.0000   1.0000   1.0000
     1.0000   1.0000   1.0000   1.0000   1.0000   1.0000   1.0000   1.0000
     0.0000   0.0000   0.0000   0.0000   0.0000   0.0000

          k = 0.0002 0.3178 1.1742 (  3245 PWs)   bands (ev):

   -49.6613 -49.6578 -16.4269 -16.3673 -16.2567 -16.2073 -16.1222 -16.0688
    -1.4324  -1.4295  -1.4246  -1.4230  -1.4204  -1.4195  -1.4191  -1.4183
    -1.4132  -1.4113  -1.3932  -1.3910  -1.3870  -1.3852   7.4500   7.6101
    11.9606  12.5072  13.2097  13.8068  15.0247  15.2104  16.9483  17.3572
    20.4121  21.2553  21.5371  21.8767  22.6878  22.8848

     occupation numbers 
     1.0000   1.0000   1.0000   1.0000   1.0000   1.0000   1.0000   1.0000
     1.0000   1.0000   1.0000   1.0000   1.0000   1.0000   1.0000   1.0000
     1.0000   1.0000   1.0000   1.0000   1.0000   1.0000   1.0000   1.0000
     1.0000   1.0000   1.0000   1.0000   1.0000   1.0000   1.0000   1.0000
     0.0000   0.0000   0.0000   0.0000   0.0000   0.0000

          k = 0.0002 0.3178 0.0000 (  3255 PWs)   bands (ev):

   -49.6795 -49.6632 -16.3399 -16.2252 -16.2166 -16.0743 -16.0664 -16.0017
    -1.4319  -1.4293  -1.4254  -1.4254  -1.4225  -1.4225  -1.4171  -1.4164
    -1.4151  -1.4076  -1.3983  -1.3907  -1.3851  -1.3851   4.9019   7.4051
    11.5261  14.2878  15.1798  15.2893  15.3640  16.1152  16.9339  17.1587
    18.9078  19.4177  21.0140  21.4525  22.1170  22.4475

     occupation numbers 
     1.0000   1.0000   1.0000   1.0000   1.0000   1.0000   1.0000   1.0000
     1.0000   1.0000   1.0000   1.0000   1.0000   1.0000   1.0000   1.0000
     1.0000   1.0000   1.0000   1.0000   1.0000   1.0000   1.0000   1.0000
     1.0000   1.0000   1.0000   1.0000   1.0000   1.0000   1.0000   1.0000
     0.0000   0.0000   0.0000   0.0000   0.0000   0.0000

          k = 0.0002 0.4767 0.4403 (  3273 PWs)   bands (ev):

   -49.6733 -49.6612 -16.4032 -16.2826 -16.2039 -16.1783 -16.0277 -16.0243
    -1.4330  -1.4325  -1.4309  -1.4230  -1.4212  -1.4199  -1.4166  -1.4152
    -1.4131  -1.4092  -1.3960  -1.3907  -1.3877  -1.3834   6.1064   7.5956
    11.6526  12.4338  14.0955  14.9710  15.9584  16.1838  16.4662  17.9126
    18.5005  19.7895  20.1955  20.9457  21.6232  23.0083

     occupation numbers 
     1.0000   1.0000   1.0000   1.0000   1.0000   1.0000   1.0000   1.0000
     1.0000   1.0000   1.0000   1.0000   1.0000   1.0000   1.0000   1.0000
     1.0000   1.0000   1.0000   1.0000   1.0000   1.0000   1.0000   1.0000
     1.0000   1.0000   1.0000   1.0000   1.0000   1.0000   1.0000   1.0000
     0.0242   0.0000   0.0000   0.0000   0.0000   0.0000

          k = 0.0002 0.4767 0.7339 (  3263 PWs)   bands (ev):

   -49.6692 -49.6598 -16.4518 -16.2934 -16.2150 -16.1940 -16.0552 -16.0311
    -1.4347  -1.4327  -1.4305  -1.4224  -1.4212  -1.4193  -1.4163  -1.4146
    -1.4125  -1.4097  -1.3953  -1.3913  -1.3864  -1.3842   6.9941   7.5899
    11.2314  12.0926  13.9230  14.6028  15.5862  15.8749  16.7331  17.5607
    19.0244  19.8377  21.2964  21.5860  22.0443  22.4694

     occupation numbers 
     1.0000   1.0000   1.0000   1.0000   1.0000   1.0000   1.0000   1.0000
     1.0000   1.0000   1.0000   1.0000   1.0000   1.0000   1.0000   1.0000
     1.0000   1.0000   1.0000   1.0000   1.0000   1.0000   1.0000   1.0000
     1.0000   1.0000   1.0000   1.0000   1.0000   1.0000   1.0000   1.0000
     0.0000   0.0000   0.0000   0.0000   0.0000   0.0000

          k = 0.0002 0.4767 1.0274 (  3253 PWs)   bands (ev):

   -49.6653 -49.6590 -16.4405 -16.2971 -16.2618 -16.1793 -16.1085 -16.0523
    -1.4333  -1.4291  -1.4274  -1.4250  -1.4204  -1.4192  -1.4174  -1.4166
    -1.4138  -1.4106  -1.3940  -1.3898  -1.3877  -1.3852   7.2672   7.5591
    11.5366  12.2832  13.5852  14.4218  15.0608  15.4553  16.9037  17.2829
    19.6480  20.7424  21.5965  21.8116  22.2046  22.7319

     occupation numbers 
     1.0000   1.0000   1.0000   1.0000   1.0000   1.0000   1.0000   1.0000
     1.0000   1.0000   1.0000   1.0000   1.0000   1.0000   1.0000   1.0000
     1.0000   1.0000   1.0000   1.0000   1.0000   1.0000   1.0000   1.0000
     1.0000   1.0000   1.0000   1.0000   1.0000   1.0000   1.0000   1.0000
     0.0000   0.0000   0.0000   0.0000   0.0000   0.0000

          k = 0.0002 0.4767 1.3209 (  3246 PWs)   bands (ev):

   -49.6636 -49.6590 -16.3766 -16.3746 -16.2261 -16.2051 -16.1290 -16.0652
    -1.4298  -1.4295  -1.4239  -1.4234  -1.4217  -1.4214  -1.4193  -1.4179
    -1.4138  -1.4117  -1.3918  -1.3911  -1.3873  -1.3862   7.1346   7.5818
    12.3358  12.4240  13.4691  13.7664  14.7764  15.3977  16.9167  17.3124
    20.1413  20.5191  21.5463  21.7756  22.8451  23.2146

     occupation numbers 
     1.0000   1.0000   1.0000   1.0000   1.0000   1.0000   1.0000   1.0000
     1.0000   1.0000   1.0000   1.0000   1.0000   1.0000   1.0000   1.0000
     1.0000   1.0000   1.0000   1.0000   1.0000   1.0000   1.0000   1.0000
     1.0000   1.0000   1.0000   1.0000   1.0000   1.0000   1.0000   1.0000
     0.0000   0.0000   0.0000   0.0000   0.0000   0.0000

          k = 0.0002 0.4767-0.1468 (  3252 PWs)   bands (ev):

   -49.6758 -49.6622 -16.3310 -16.2773 -16.2134 -16.1375 -16.0620 -16.0151
    -1.4310  -1.4283  -1.4272  -1.4257  -1.4229  -1.4203  -1.4183  -1.4164
    -1.4149  -1.4087  -1.3962  -1.3896  -1.3876  -1.3847   5.4858   7.4554
    11.8966  13.5584  14.1852  14.9279  15.4090  16.0986  16.9004  17.6542
    18.6519  19.2878  20.5990  21.5792  22.1074  22.5573

     occupation numbers 
     1.0000   1.0000   1.0000   1.0000   1.0000   1.0000   1.0000   1.0000
     1.0000   1.0000   1.0000   1.0000   1.0000   1.0000   1.0000   1.0000
     1.0000   1.0000   1.0000   1.0000   1.0000   1.0000   1.0000   1.0000
     1.0000   1.0000   1.0000   1.0000   1.0000   1.0000   1.0000   1.0000
     0.0002   0.0000   0.0000   0.0000   0.0000   0.0000

          k = 0.0003 0.6356 0.5871 (  3269 PWs)   bands (ev):

   -49.6702 -49.6607 -16.4565 -16.2984 -16.2065 -16.1738 -16.0478 -16.0184
    -1.4355  -1.4341  -1.4318  -1.4216  -1.4211  -1.4196  -1.4160  -1.4137
    -1.4117  -1.4093  -1.3957  -1.3917  -1.3863  -1.3832   6.9586   7.5190
    11.0816  11.9637  14.3100  14.7386  15.7431  15.9641  16.5380  18.0457
    18.4259  19.8602  20.9736  21.1865  21.8569  22.6355

     occupation numbers 
     1.0000   1.0000   1.0000   1.0000   1.0000   1.0000   1.0000   1.0000
     1.0000   1.0000   1.0000   1.0000   1.0000   1.0000   1.0000   1.0000
     1.0000   1.0000   1.0000   1.0000   1.0000   1.0000   1.0000   1.0000
     1.0000   1.0000   1.0000   1.0000   1.0000   1.0000   1.0000   0.9971
     0.1154   0.0000   0.0000   0.0000   0.0000   0.0000

          k = 0.0003 0.6356 0.8806 (  3270 PWs)   bands (ev):

   -49.6687 -49.6603 -16.4520 -16.2932 -16.2105 -16.1891 -16.0609 -16.0351
    -1.4347  -1.4326  -1.4307  -1.4223  -1.4212  -1.4194  -1.4163  -1.4147
    -1.4126  -1.4098  -1.3951  -1.3912  -1.3865  -1.3841   7.0691   7.5143
    11.1902  12.0692  14.0277  14.7435  15.5558  15.6897  16.6707  17.5754
    19.1650  19.8576  21.2882  21.5817  21.9909  22.4978

     occupation numbers 
     1.0000   1.0000   1.0000   1.0000   1.0000   1.0000   1.0000   1.0000
     1.0000   1.0000   1.0000   1.0000   1.0000   1.0000   1.0000   1.0000
     1.0000   1.0000   1.0000   1.0000   1.0000   1.0000   1.0000   1.0000
     1.0000   1.0000   1.0000   1.0000   1.0000   1.0000   1.0000   1.0000
     0.0000   0.0000   0.0000   0.0000   0.0000   0.0000

          k = 0.0003 0.6356 1.1742 (  3247 PWs)   bands (ev):

   -49.6678 -49.6601 -16.3878 -16.2986 -16.2363 -16.1802 -16.1132 -16.0470
    -1.4304  -1.4278  -1.4265  -1.4252  -1.4225  -1.4196  -1.4188  -1.4170
    -1.4145  -1.4108  -1.3930  -1.3898  -1.3879  -1.3861   6.6882   7.5401
    12.2375  12.5144  13.7368  14.1131  14.8467  15.6392  16.9252  17.4025
    19.5233  20.0222  21.1793  22.0000  22.4465  22.7855

     occupation numbers 
     1.0000   1.0000   1.0000   1.0000   1.0000   1.0000   1.0000   1.0000
     1.0000   1.0000   1.0000   1.0000   1.0000   1.0000   1.0000   1.0000
     1.0000   1.0000   1.0000   1.0000   1.0000   1.0000   1.0000   1.0000
     1.0000   1.0000   1.0000   1.0000   1.0000   1.0000   1.0000   1.0000
     0.0000   0.0000   0.0000   0.0000   0.0000   0.0000

          k = 0.0003 0.6356-0.2935 (  3263 PWs)   bands (ev):

   -49.6715 -49.6611 -16.3986 -16.2741 -16.2083 -16.1918 -16.0571 -16.0312
    -1.4319  -1.4313  -1.4297  -1.4233  -1.4218  -1.4197  -1.4171  -1.4161
    -1.4137  -1.4097  -1.3949  -1.3903  -1.3877  -1.3844   6.2969   7.5355
    11.8736  12.4307  14.1048  14.5186  15.5645  15.9688  16.6927  17.6947
    18.9607  19.6325  20.6779  21.3986  21.9707  22.5773

     occupation numbers 
     1.0000   1.0000   1.0000   1.0000   1.0000   1.0000   1.0000   1.0000
     1.0000   1.0000   1.0000   1.0000   1.0000   1.0000   1.0000   1.0000
     1.0000   1.0000   1.0000   1.0000   1.0000   1.0000   1.0000   1.0000
     1.0000   1.0000   1.0000   1.0000   1.0000   1.0000   1.0000   1.0000
     0.0000   0.0000   0.0000   0.0000   0.0000   0.0000

          k = 0.0003 0.6356 0.0000 (  3255 PWs)   bands (ev):

   -49.6720 -49.6612 -16.3187 -16.3011 -16.2403 -16.1388 -16.1151 -16.0296
    -1.4279  -1.4275  -1.4267  -1.4250  -1.4237  -1.4227  -1.4182  -1.4172
    -1.4153  -1.4100  -1.3940  -1.3894  -1.3871  -1.3869   6.0101   7.4703
    12.4460  13.1044  13.7835  14.4621  14.7372  15.8625  17.2952  17.3060
    19.0650  19.4110  20.8223  22.0790  22.5231  23.0376

     occupation numbers 
     1.0000   1.0000   1.0000   1.0000   1.0000   1.0000   1.0000   1.0000
     1.0000   1.0000   1.0000   1.0000   1.0000   1.0000   1.0000   1.0000
     1.0000   1.0000   1.0000   1.0000   1.0000   1.0000   1.0000   1.0000
     1.0000   1.0000   1.0000   1.0000   1.0000   1.0000   1.0000   1.0000
     0.0000   0.0000   0.0000   0.0000   0.0000   0.0000

          k = 0.1124-0.1123 0.1468 (  3246 PWs)   bands (ev):

   -49.6811 -49.6635 -16.3541 -16.2230 -16.1911 -16.0740 -16.0414 -15.9954
    -1.4328  -1.4296  -1.4265  -1.4245  -1.4234  -1.4210  -1.4164  -1.4163
    -1.4148  -1.4069  -1.3994  -1.3911  -1.3853  -1.3841   4.6734   7.4370
    11.2843  14.5439  15.2436  15.6209  15.9457  16.1592  16.6121  16.9181
    19.1012  19.9518  20.8060  21.2098  21.9664  22.2047

     occupation numbers 
     1.0000   1.0000   1.0000   1.0000   1.0000   1.0000   1.0000   1.0000
     1.0000   1.0000   1.0000   1.0000   1.0000   1.0000   1.0000   1.0000
     1.0000   1.0000   1.0000   1.0000   1.0000   1.0000   1.0000   1.0000
     1.0000   1.0000   1.0000   1.0000   1.0000   1.0000   1.0000   1.0000
     0.0000   0.0000   0.0000   0.0000   0.0000   0.0000

          k = 0.1124-0.1123 0.4403 (  3252 PWs)   bands (ev):

   -49.6767 -49.6613 -16.3411 -16.2807 -16.2124 -16.1403 -16.0628 -15.9982
    -1.4309  -1.4283  -1.4272  -1.4255  -1.4231  -1.4204  -1.4181  -1.4164
    -1.4147  -1.4084  -1.3968  -1.3895  -1.3879  -1.3849   5.3836   7.6624
    11.6509  13.7198  14.0249  14.9482  15.4909  16.3957  16.9837  17.4858
    18.6467  19.0075  20.5255  21.5322  22.0950  22.5483

     occupation numbers 
     1.0000   1.0000   1.0000   1.0000   1.0000   1.0000   1.0000   1.0000
     1.0000   1.0000   1.0000   1.0000   1.0000   1.0000   1.0000   1.0000
     1.0000   1.0000   1.0000   1.0000   1.0000   1.0000   1.0000   1.0000
     1.0000   1.0000   1.0000   1.0000   1.0000   1.0000   1.0000   1.0000
     0.0002   0.0000   0.0000   0.0000   0.0000   0.0000

          k = 0.1124-0.1123 0.7339 (  3248 PWs)   bands (ev):

   -49.6696 -49.6582 -16.3873 -16.3003 -16.2456 -16.1972 -16.1178 -16.0139
    -1.4305  -1.4280  -1.4260  -1.4255  -1.4225  -1.4196  -1.4186  -1.4168
    -1.4143  -1.4103  -1.3938  -1.3901  -1.3880  -1.3862   6.4960   7.8095
    12.0077  12.7891  13.3592  14.0893  14.9706  15.9198  17.2167  17.5733
    18.7602  19.9288  20.6495  22.1058  22.5704  22.9849

     occupation numbers 
     1.0000   1.0000   1.0000   1.0000   1.0000   1.0000   1.0000   1.0000
     1.0000   1.0000   1.0000   1.0000   1.0000   1.0000   1.0000   1.0000
     1.0000   1.0000   1.0000   1.0000   1.0000   1.0000   1.0000   1.0000
     1.0000   1.0000   1.0000   1.0000   1.0000   1.0000   1.0000   1.0000
     0.0000   0.0000   0.0000   0.0000   0.0000   0.0000

          k = 0.1124-0.1123 1.0274 (  3253 PWs)   bands (ev):

   -49.6626 -49.6565 -16.4261 -16.3663 -16.2582 -16.2111 -16.1411 -16.0463
    -1.4325  -1.4295  -1.4247  -1.4228  -1.4206  -1.4199  -1.4192  -1.4175
    -1.4133  -1.4111  -1.3934  -1.3911  -1.3873  -1.3851   7.3353   7.7397
    11.8450  12.4786  13.3666  13.9705  14.8201  15.1291  16.9851  17.5795
    20.1480  21.0800  21.3563  22.3178  22.4339  23.1761

     occupation numbers 
     1.0000   1.0000   1.0000   1.0000   1.0000   1.0000   1.0000   1.0000
     1.0000   1.0000   1.0000   1.0000   1.0000   1.0000   1.0000   1.0000
     1.0000   1.0000   1.0000   1.0000   1.0000   1.0000   1.0000   1.0000
     1.0000   1.0000   1.0000   1.0000   1.0000   1.0000   1.0000   1.0000
     0.0000   0.0000   0.0000   0.0000   0.0000   0.0000

          k = 0.1124-0.1123 1.3209 (  3250 PWs)   bands (ev):

   -49.6581 -49.6575 -16.4181 -16.4174 -16.2497 -16.2480 -16.0977 -16.0890
    -1.4321  -1.4321  -1.4220  -1.4216  -1.4209  -1.4205  -1.4190  -1.4188
    -1.4118  -1.4116  -1.3929  -1.3928  -1.3854  -1.3853   7.5761   7.6109
    12.4371  12.4610  13.1865  13.1888  15.0712  15.0815  17.1981  17.2781
    21.4319  21.5247  21.8601  21.9570  22.7687  22.8211

     occupation numbers 
     1.0000   1.0000   1.0000   1.0000   1.0000   1.0000   1.0000   1.0000
     1.0000   1.0000   1.0000   1.0000   1.0000   1.0000   1.0000   1.0000
     1.0000   1.0000   1.0000   1.0000   1.0000   1.0000   1.0000   1.0000
     1.0000   1.0000   1.0000   1.0000   1.0000   1.0000   1.0000   1.0000
     0.0000   0.0000   0.0000   0.0000   0.0000   0.0000

          k = 0.1125 0.0466 0.2935 (  3255 PWs)   bands (ev):

   -49.6795 -49.6632 -16.3399 -16.2252 -16.2166 -16.0743 -16.0664 -16.0017
    -1.4319  -1.4293  -1.4254  -1.4254  -1.4225  -1.4225  -1.4171  -1.4164
    -1.4151  -1.4076  -1.3983  -1.3907  -1.3851  -1.3851   4.9019   7.4051
    11.5261  14.2878  15.1798  15.2893  15.3640  16.1152  16.9339  17.1587
    18.9078  19.4177  21.0140  21.4525  22.1170  22.4474

     occupation numbers 
     1.0000   1.0000   1.0000   1.0000   1.0000   1.0000   1.0000   1.0000
     1.0000   1.0000   1.0000   1.0000   1.0000   1.0000   1.0000   1.0000
     1.0000   1.0000   1.0000   1.0000   1.0000   1.0000   1.0000   1.0000
     1.0000   1.0000   1.0000   1.0000   1.0000   1.0000   1.0000   1.0000
     0.0000   0.0000   0.0000   0.0000   0.0000   0.0000

          k = 0.1125 0.0466 0.5871 (  3244 PWs)   bands (ev):

   -49.6732 -49.6600 -16.3278 -16.2981 -16.2496 -16.1401 -16.1194 -16.0078
    -1.4279  -1.4273  -1.4268  -1.4248  -1.4235  -1.4226  -1.4182  -1.4168
    -1.4154  -1.4094  -1.3947  -1.3891  -1.3874  -1.3871   5.8779   7.6973
    12.1894  13.0509  13.7928  14.5996  14.7365  16.1478  17.3508  17.5163
    18.5988  19.1809  20.5941  22.1819  22.6561  23.1359

     occupation numbers 
     1.0000   1.0000   1.0000   1.0000   1.0000   1.0000   1.0000   1.0000
     1.0000   1.0000   1.0000   1.0000   1.0000   1.0000   1.0000   1.0000
     1.0000   1.0000   1.0000   1.0000   1.0000   1.0000   1.0000   1.0000
     1.0000   1.0000   1.0000   1.0000   1.0000   1.0000   1.0000   1.0000
     0.0014   0.0000   0.0000   0.0000   0.0000   0.0000

          k = 0.1125 0.0466 0.8806 (  3246 PWs)   bands (ev):

   -49.6656 -49.6570 -16.3749 -16.3734 -16.2372 -16.2069 -16.1537 -16.0299
    -1.4302  -1.4291  -1.4240  -1.4233  -1.4217  -1.4216  -1.4195  -1.4169
    -1.4141  -1.4111  -1.3926  -1.3911  -1.3878  -1.3858   6.9614   7.8005
    12.1119  12.3798  13.6590  14.2112  14.2849  15.4142  17.1067  17.5521
    19.5234  20.5468  20.8314  22.5936  22.7768  23.6017

     occupation numbers 
     1.0000   1.0000   1.0000   1.0000   1.0000   1.0000   1.0000   1.0000
     1.0000   1.0000   1.0000   1.0000   1.0000   1.0000   1.0000   1.0000
     1.0000   1.0000   1.0000   1.0000   1.0000   1.0000   1.0000   1.0000
     1.0000   1.0000   1.0000   1.0000   1.0000   1.0000   1.0000   1.0000
     0.0000   0.0000   0.0000   0.0000   0.0000   0.0000

          k = 0.1125 0.0466 1.1742 (  3245 PWs)   bands (ev):

   -49.6593 -49.6563 -16.4179 -16.4168 -16.2513 -16.2476 -16.1179 -16.0681
    -1.4323  -1.4318  -1.4221  -1.4213  -1.4209  -1.4207  -1.4195  -1.4180
    -1.4121  -1.4113  -1.3930  -1.3928  -1.3857  -1.3849   7.5066   7.6863
    12.2669  12.4693  13.1452  13.5279  14.9117  15.0422  17.0282  17.5707
    21.1508  21.5841  21.7749  22.3279  22.5880  23.0012

     occupation numbers 
     1.0000   1.0000   1.0000   1.0000   1.0000   1.0000   1.0000   1.0000
     1.0000   1.0000   1.0000   1.0000   1.0000   1.0000   1.0000   1.0000
     1.0000   1.0000   1.0000   1.0000   1.0000   1.0000   1.0000   1.0000
     1.0000   1.0000   1.0000   1.0000   1.0000   1.0000   1.0000   1.0000
     0.0000   0.0000   0.0000   0.0000   0.0000   0.0000

          k = 0.1125 0.0466 0.0000 (  3251 PWs)   bands (ev):

   -49.6819 -49.6646 -16.3532 -16.1944 -16.1944 -16.0436 -16.0436 -16.0049
    -1.4335  -1.4304  -1.4256  -1.4256  -1.4220  -1.4220  -1.4159  -1.4159
    -1.4153  -1.4066  -1.3999  -1.3916  -1.3840  -1.3840   4.5281   7.2387
    11.3586  14.7974  15.6536  15.6622  15.6622  16.2238  16.7958  16.7958
    19.3780  20.3218  21.1775  21.4133  21.6849  21.6849

     occupation numbers 
     1.0000   1.0000   1.0000   1.0000   1.0000   1.0000   1.0000   1.0000
     1.0000   1.0000   1.0000   1.0000   1.0000   1.0000   1.0000   1.0000
     1.0000   1.0000   1.0000   1.0000   1.0000   1.0000   1.0000   1.0000
     1.0000   1.0000   1.0000   1.0000   1.0000   1.0000   1.0000   1.0000
     0.0000   0.0000   0.0000   0.0000   0.0000   0.0000

          k = 0.1126 0.2055 0.4403 (  3252 PWs)   bands (ev):

   -49.6758 -49.6622 -16.3310 -16.2773 -16.2134 -16.1375 -16.0620 -16.0151
    -1.4310  -1.4283  -1.4272  -1.4257  -1.4229  -1.4203  -1.4183  -1.4165
    -1.4149  -1.4087  -1.3962  -1.3896  -1.3876  -1.3847   5.4858   7.4554
    11.8966  13.5584  14.1852  14.9279  15.4090  16.0986  16.9004  17.6542
    18.6519  19.2878  20.5990  21.5792  22.1074  22.5574

     occupation numbers 
     1.0000   1.0000   1.0000   1.0000   1.0000   1.0000   1.0000   1.0000
     1.0000   1.0000   1.0000   1.0000   1.0000   1.0000   1.0000   1.0000
     1.0000   1.0000   1.0000   1.0000   1.0000   1.0000   1.0000   1.0000
     1.0000   1.0000   1.0000   1.0000   1.0000   1.0000   1.0000   1.0000
     0.0002   0.0000   0.0000   0.0000   0.0000   0.0000

          k = 0.1126 0.2055 0.7339 (  3254 PWs)   bands (ev):

   -49.6690 -49.6589 -16.3871 -16.2997 -16.2434 -16.1904 -16.1160 -16.0259
    -1.4305  -1.4279  -1.4264  -1.4254  -1.4225  -1.4196  -1.4187  -1.4169
    -1.4145  -1.4105  -1.3936  -1.3900  -1.3880  -1.3861   6.5617   7.7130
    12.1214  12.5801  13.6293  14.0658  14.9174  15.7952  17.0972  17.4866
    19.0747  19.9117  20.9025  22.1954  22.4838  22.8436

     occupation numbers 
     1.0000   1.0000   1.0000   1.0000   1.0000   1.0000   1.0000   1.0000
     1.0000   1.0000   1.0000   1.0000   1.0000   1.0000   1.0000   1.0000
     1.0000   1.0000   1.0000   1.0000   1.0000   1.0000   1.0000   1.0000
     1.0000   1.0000   1.0000   1.0000   1.0000   1.0000   1.0000   1.0000
     0.0000   0.0000   0.0000   0.0000   0.0000   0.0000

          k = 0.1126 0.2055 1.0274 (  3246 PWs)   bands (ev):

   -49.6623 -49.6568 -16.4261 -16.3666 -16.2589 -16.2096 -16.1363 -16.0515
    -1.4324  -1.4295  -1.4246  -1.4230  -1.4204  -1.4198  -1.4192  -1.4176
    -1.4134  -1.4111  -1.3934  -1.3911  -1.3872  -1.3851   7.3560   7.7154
    11.9472  12.3189  13.4545  13.9445  14.8142  15.1600  16.9685  17.5152
    20.1758  21.1551  21.4665  22.2165  22.5042  22.9834

     occupation numbers 
     1.0000   1.0000   1.0000   1.0000   1.0000   1.0000   1.0000   1.0000
     1.0000   1.0000   1.0000   1.0000   1.0000   1.0000   1.0000   1.0000
     1.0000   1.0000   1.0000   1.0000   1.0000   1.0000   1.0000   1.0000
     1.0000   1.0000   1.0000   1.0000   1.0000   1.0000   1.0000   1.0000
     0.0000   0.0000   0.0000   0.0000   0.0000   0.0000

          k = 0.1126 0.2055 1.3209 (  3246 PWs)   bands (ev):

   -49.6586 -49.6570 -16.4184 -16.4168 -16.2512 -16.2470 -16.1058 -16.0806
    -1.4322  -1.4320  -1.4222  -1.4213  -1.4211  -1.4203  -1.4192  -1.4185
    -1.4120  -1.4114  -1.3929  -1.3928  -1.3855  -1.3851   7.5450   7.6440
    12.3955  12.4112  13.2341  13.2889  15.0159  15.0564  17.1325  17.3778
    21.2948  21.5026  21.9757  22.0773  22.7113  22.7824

     occupation numbers 
     1.0000   1.0000   1.0000   1.0000   1.0000   1.0000   1.0000   1.0000
     1.0000   1.0000   1.0000   1.0000   1.0000   1.0000   1.0000   1.0000
     1.0000   1.0000   1.0000   1.0000   1.0000   1.0000   1.0000   1.0000
     1.0000   1.0000   1.0000   1.0000   1.0000   1.0000   1.0000   1.0000
     0.0000   0.0000   0.0000   0.0000   0.0000   0.0000

          k = 0.1126 0.2055-0.1468 (  3252 PWs)   bands (ev):

   -49.6801 -49.6646 -16.3341 -16.2248 -16.1927 -16.0727 -16.0397 -16.0162
    -1.4330  -1.4300  -1.4264  -1.4243  -1.4235  -1.4211  -1.4169  -1.4163
    -1.4149  -1.4074  -1.3986  -1.3912  -1.3850  -1.3838   4.7922   7.1608
    11.6376  14.4710  15.1067  15.5359  15.7196  16.1244  16.6897  17.1000
    19.1854  19.9554  20.7608  21.4811  22.0088  22.0450

     occupation numbers 
     1.0000   1.0000   1.0000   1.0000   1.0000   1.0000   1.0000   1.0000
     1.0000   1.0000   1.0000   1.0000   1.0000   1.0000   1.0000   1.0000
     1.0000   1.0000   1.0000   1.0000   1.0000   1.0000   1.0000   1.0000
     1.0000   1.0000   1.0000   1.0000   1.0000   1.0000   1.0000   1.0000
     0.0000   0.0000   0.0000   0.0000   0.0000   0.0000

          k = 0.1127 0.3644 0.5871 (  3263 PWs)   bands (ev):

   -49.6715 -49.6611 -16.3986 -16.2741 -16.2083 -16.1918 -16.0571 -16.0312
    -1.4319  -1.4313  -1.4297  -1.4233  -1.4218  -1.4197  -1.4171  -1.4161
    -1.4137  -1.4097  -1.3949  -1.3903  -1.3877  -1.3844   6.2969   7.5355
    11.8736  12.4307  14.1048  14.5186  15.5645  15.9688  16.6927  17.6947
    18.9607  19.6325  20.6779  21.3986  21.9707  22.5773

     occupation numbers 
     1.0000   1.0000   1.0000   1.0000   1.0000   1.0000   1.0000   1.0000
     1.0000   1.0000   1.0000   1.0000   1.0000   1.0000   1.0000   1.0000
     1.0000   1.0000   1.0000   1.0000   1.0000   1.0000   1.0000   1.0000
     1.0000   1.0000   1.0000   1.0000   1.0000   1.0000   1.0000   1.0000
     0.0000   0.0000   0.0000   0.0000   0.0000   0.0000

          k = 0.1127 0.3644 0.8806 (  3254 PWs)   bands (ev):

   -49.6659 -49.6585 -16.4398 -16.2976 -16.2631 -16.1857 -16.1093 -16.0436
    -1.4333  -1.4291  -1.4274  -1.4251  -1.4205  -1.4190  -1.4174  -1.4166
    -1.4139  -1.4104  -1.3941  -1.3899  -1.3877  -1.3852   7.1927   7.6387
    11.5951  12.1785  13.6859  14.3006  15.1176  15.4568  17.0033  17.2787
    19.4503  20.6815  21.5755  21.9816  22.1640  22.6038

     occupation numbers 
     1.0000   1.0000   1.0000   1.0000   1.0000   1.0000   1.0000   1.0000
     1.0000   1.0000   1.0000   1.0000   1.0000   1.0000   1.0000   1.0000
     1.0000   1.0000   1.0000   1.0000   1.0000   1.0000   1.0000   1.0000
     1.0000   1.0000   1.0000   1.0000   1.0000   1.0000   1.0000   1.0000
     0.0000   0.0000   0.0000   0.0000   0.0000   0.0000

          k = 0.1127 0.3644 1.1742 (  3253 PWs)   bands (ev):

   -49.6618 -49.6573 -16.4264 -16.3669 -16.2585 -16.2081 -16.1290 -16.0603
    -1.4324  -1.4295  -1.4246  -1.4231  -1.4204  -1.4197  -1.4192  -1.4179
    -1.4134  -1.4112  -1.3933  -1.3911  -1.3871  -1.3852   7.3959   7.6697
    12.0419  12.2556  13.4268  13.8709  14.8954  15.1925  16.9518  17.4281
    20.2644  21.1517  21.7391  21.9822  22.6335  22.7612

     occupation numbers 
     1.0000   1.0000   1.0000   1.0000   1.0000   1.0000   1.0000   1.0000
     1.0000   1.0000   1.0000   1.0000   1.0000   1.0000   1.0000   1.0000
     1.0000   1.0000   1.0000   1.0000   1.0000   1.0000   1.0000   1.0000
     1.0000   1.0000   1.0000   1.0000   1.0000   1.0000   1.0000   1.0000
     0.0000   0.0000   0.0000   0.0000   0.0000   0.0000

          k = 0.1127 0.3644-0.2935 (  3248 PWs)   bands (ev):

   -49.6762 -49.6637 -16.3300 -16.2736 -16.1868 -16.1384 -16.0336 -16.0316
    -1.4324  -1.4291  -1.4277  -1.4264  -1.4218  -1.4190  -1.4188  -1.4160
    -1.4145  -1.4085  -1.3965  -1.3900  -1.3875  -1.3833   5.4161   7.2241
    11.9229  13.4869  14.4316  15.3363  15.7947  16.2407  16.2498  17.7986
    18.6495  19.9734  20.0478  20.9227  22.1234  22.6426

     occupation numbers 
     1.0000   1.0000   1.0000   1.0000   1.0000   1.0000   1.0000   1.0000
     1.0000   1.0000   1.0000   1.0000   1.0000   1.0000   1.0000   1.0000
     1.0000   1.0000   1.0000   1.0000   1.0000   1.0000   1.0000   1.0000
     1.0000   1.0000   1.0000   1.0000   1.0000   1.0000   1.0000   1.0000
     0.0002   0.0000   0.0000   0.0000   0.0000   0.0000

[...]
     0.0000   0.0000   0.0000   0.0000   0.0000   0.0000

          k = 0.4494-1.0848 0.2935 (  3251 PWs)   bands (ev):

   -49.6610 -49.6581 -16.4272 -16.3674 -16.2557 -16.2072 -16.1192 -16.0726
    -1.4324  -1.4295  -1.4246  -1.4230  -1.4204  -1.4195  -1.4190  -1.4185
    -1.4131  -1.4115  -1.3933  -1.3910  -1.3869  -1.3853   7.4909   7.5669
    11.9224  12.7676  12.9571  13.7869  15.0872  15.2119  16.9506  17.3295
    20.5240  21.2424  21.4639  21.7756  22.7047  23.0122

     occupation numbers 
     1.0000   1.0000   1.0000   1.0000   1.0000   1.0000   1.0000   1.0000
     1.0000   1.0000   1.0000   1.0000   1.0000   1.0000   1.0000   1.0000
     1.0000   1.0000   1.0000   1.0000   1.0000   1.0000   1.0000   1.0000
     1.0000   1.0000   1.0000   1.0000   1.0000   1.0000   1.0000   1.0000
     0.0000   0.0000   0.0000   0.0000   0.0000   0.0000

          k = 0.4494-1.0848 0.5871 (  3247 PWs)   bands (ev):

   -49.6651 -49.6627 -16.3899 -16.2978 -16.2204 -16.1647 -16.1088 -16.0820
    -1.4304  -1.4280  -1.4265  -1.4249  -1.4225  -1.4198  -1.4191  -1.4174
    -1.4135  -1.4122  -1.3923  -1.3895  -1.3881  -1.3860   7.0388   7.1342
    12.1564  12.9871  13.3750  14.1437  15.0549  15.3498  16.8325  17.2261
    20.1923  20.5876  20.9497  21.4919  22.2962  23.2269

     occupation numbers 
     1.0000   1.0000   1.0000   1.0000   1.0000   1.0000   1.0000   1.0000
     1.0000   1.0000   1.0000   1.0000   1.0000   1.0000   1.0000   1.0000
     1.0000   1.0000   1.0000   1.0000   1.0000   1.0000   1.0000   1.0000
     1.0000   1.0000   1.0000   1.0000   1.0000   1.0000   1.0000   1.0000
     0.0000   0.0000   0.0000   0.0000   0.0000   0.0000

          k = 0.4494-1.0848 0.8806 (  3258 PWs)   bands (ev):

   -49.6698 -49.6682 -16.3181 -16.2323 -16.1807 -16.1546 -16.1020 -16.0514
    -1.4314  -1.4284  -1.4273  -1.4262  -1.4218  -1.4209  -1.4194  -1.4176
    -1.4125  -1.4116  -1.3932  -1.3911  -1.3867  -1.3839   6.2683   6.3763
    13.0991  13.1576  14.1670  14.6058  15.1944  15.6491  16.6821  17.5108
    19.6356  20.0316  20.7326  21.2078  21.7791  22.6414

     occupation numbers 
     1.0000   1.0000   1.0000   1.0000   1.0000   1.0000   1.0000   1.0000
     1.0000   1.0000   1.0000   1.0000   1.0000   1.0000   1.0000   1.0000
     1.0000   1.0000   1.0000   1.0000   1.0000   1.0000   1.0000   1.0000
     1.0000   1.0000   1.0000   1.0000   1.0000   1.0000   1.0000   1.0000
     0.0000   0.0000   0.0000   0.0000   0.0000   0.0000

          k = 0.4494-1.0848 1.1742 (  3268 PWs)   bands (ev):

   -49.6726 -49.6721 -16.2424 -16.1979 -16.1819 -16.1672 -16.0605 -16.0344
    -1.4332  -1.4319  -1.4256  -1.4237  -1.4232  -1.4212  -1.4187  -1.4181
    -1.4116  -1.4113  -1.3942  -1.3934  -1.3839  -1.3827   5.7497   5.7904
    13.5225  13.6942  14.5645  14.9660  15.3097  15.8212  16.9074  17.6987
    19.2372  20.4724  20.6158  21.2514  22.0048  22.2938

     occupation numbers 
     1.0000   1.0000   1.0000   1.0000   1.0000   1.0000   1.0000   1.0000
     1.0000   1.0000   1.0000   1.0000   1.0000   1.0000   1.0000   1.0000
     1.0000   1.0000   1.0000   1.0000   1.0000   1.0000   1.0000   1.0000
     1.0000   1.0000   1.0000   1.0000   1.0000   1.0000   1.0000   1.0000
     0.0000   0.0000   0.0000   0.0000   0.0000   0.0000

          k = 0.4494-0.9259 0.1468 (  3253 PWs)   bands (ev):

   -49.6626 -49.6565 -16.4261 -16.3663 -16.2582 -16.2111 -16.1410 -16.0463
    -1.4325  -1.4295  -1.4247  -1.4228  -1.4206  -1.4199  -1.4192  -1.4175
    -1.4133  -1.4111  -1.3934  -1.3911  -1.3873  -1.3851   7.3353   7.7397
    11.8450  12.4786  13.3666  13.9705  14.8201  15.1291  16.9851  17.5795
    20.1480  21.0800  21.3563  22.3178  22.4339  23.1761

     occupation numbers 
     1.0000   1.0000   1.0000   1.0000   1.0000   1.0000   1.0000   1.0000
     1.0000   1.0000   1.0000   1.0000   1.0000   1.0000   1.0000   1.0000
     1.0000   1.0000   1.0000   1.0000   1.0000   1.0000   1.0000   1.0000
     1.0000   1.0000   1.0000   1.0000   1.0000   1.0000   1.0000   1.0000
     0.0000   0.0000   0.0000   0.0000   0.0000   0.0000

          k = 0.4494-0.9259 0.4403 (  3253 PWs)   bands (ev):

   -49.6649 -49.6594 -16.4413 -16.2960 -16.2597 -16.1767 -16.1080 -16.0578
    -1.4334  -1.4291  -1.4274  -1.4249  -1.4204  -1.4193  -1.4174  -1.4166
    -1.4137  -1.4109  -1.3939  -1.3897  -1.3877  -1.3852   7.3585   7.4649
    11.4406  12.5421  13.3800  14.3938  15.1382  15.4426  16.8796  17.2641
    19.8592  20.8592  21.4125  21.5745  22.2360  22.8977

     occupation numbers 
     1.0000   1.0000   1.0000   1.0000   1.0000   1.0000   1.0000   1.0000
     1.0000   1.0000   1.0000   1.0000   1.0000   1.0000   1.0000   1.0000
     1.0000   1.0000   1.0000   1.0000   1.0000   1.0000   1.0000   1.0000
     1.0000   1.0000   1.0000   1.0000   1.0000   1.0000   1.0000   1.0000
     0.0000   0.0000   0.0000   0.0000   0.0000   0.0000

          k = 0.4494-0.9259 0.7339 (  3256 PWs)   bands (ev):

   -49.6686 -49.6640 -16.4014 -16.2482 -16.2076 -16.1679 -16.0933 -16.0438
    -1.4319  -1.4313  -1.4297  -1.4233  -1.4216  -1.4202  -1.4173  -1.4160
    -1.4130  -1.4112  -1.3938  -1.3899  -1.3880  -1.3840   6.6936   7.0407
    11.8497  12.5880  14.3776  14.7465  15.0894  15.6161  16.6577  17.6118
    19.5487  20.1404  20.5689  21.2196  21.9701  22.4671

     occupation numbers 
     1.0000   1.0000   1.0000   1.0000   1.0000   1.0000   1.0000   1.0000
     1.0000   1.0000   1.0000   1.0000   1.0000   1.0000   1.0000   1.0000
     1.0000   1.0000   1.0000   1.0000   1.0000   1.0000   1.0000   1.0000
     1.0000   1.0000   1.0000   1.0000   1.0000   1.0000   1.0000   1.0000
     0.0000   0.0000   0.0000   0.0000   0.0000   0.0000

          k = 0.4494-0.9259 1.0274 (  3260 PWs)   bands (ev):

   -49.6717 -49.6682 -16.3221 -16.2070 -16.1899 -16.1479 -16.1010 -16.0284
    -1.4328  -1.4290  -1.4280  -1.4270  -1.4205  -1.4197  -1.4197  -1.4170
    -1.4127  -1.4108  -1.3942  -1.3910  -1.3869  -1.3828   5.9934   6.4145
    12.8235  13.1161  14.4554  15.0119  15.3593  16.1403  16.3220  18.4087
    18.4280  19.7759  20.8926  20.9718  22.0312  22.2554

     occupation numbers 
     1.0000   1.0000   1.0000   1.0000   1.0000   1.0000   1.0000   1.0000
     1.0000   1.0000   1.0000   1.0000   1.0000   1.0000   1.0000   1.0000
     1.0000   1.0000   1.0000   1.0000   1.0000   1.0000   1.0000   1.0000
     1.0000   1.0000   1.0000   1.0000   1.0000   1.0000   1.0000   0.1540
     0.1113   0.0000   0.0000   0.0000   0.0000   0.0000

          k = 0.4494-0.9259 1.3209 (  3265 PWs)   bands (ev):

   -49.6729 -49.6699 -16.2447 -16.2361 -16.1906 -16.1411 -16.0586 -16.0573
    -1.4319  -1.4315  -1.4245  -1.4245  -1.4228  -1.4227  -1.4186  -1.4184
    -1.4124  -1.4109  -1.3940  -1.3926  -1.3840  -1.3840   5.7093   6.1390
    13.2859  13.9238  14.4340  14.5237  15.5177  15.6190  17.0721  17.1670
    19.9349  19.9852  20.7930  20.7963  22.3928  22.4008

     occupation numbers 
     1.0000   1.0000   1.0000   1.0000   1.0000   1.0000   1.0000   1.0000
     1.0000   1.0000   1.0000   1.0000   1.0000   1.0000   1.0000   1.0000
     1.0000   1.0000   1.0000   1.0000   1.0000   1.0000   1.0000   1.0000
     1.0000   1.0000   1.0000   1.0000   1.0000   1.0000   1.0000   1.0000
     0.0000   0.0000   0.0000   0.0000   0.0000   0.0000

          k = 0.4495-0.7670 0.2935 (  3258 PWs)   bands (ev):

   -49.6663 -49.6581 -16.4398 -16.2966 -16.2629 -16.1938 -16.1101 -16.0359
    -1.4332  -1.4292  -1.4272  -1.4252  -1.4206  -1.4189  -1.4174  -1.4167
    -1.4138  -1.4105  -1.3942  -1.3900  -1.3877  -1.3852   7.1446   7.6919
    11.5054  12.3831  13.5790  14.1299  15.2351  15.4819  17.1266  17.2735
    19.3415  20.7229  21.2903  21.8183  22.3116  22.8181

     occupation numbers 
     1.0000   1.0000   1.0000   1.0000   1.0000   1.0000   1.0000   1.0000
     1.0000   1.0000   1.0000   1.0000   1.0000   1.0000   1.0000   1.0000
     1.0000   1.0000   1.0000   1.0000   1.0000   1.0000   1.0000   1.0000
     1.0000   1.0000   1.0000   1.0000   1.0000   1.0000   1.0000   1.0000
     0.0000   0.0000   0.0000   0.0000   0.0000   0.0000

          k = 0.4495-0.7670 0.5871 (  3254 PWs)   bands (ev):

   -49.6682 -49.6608 -16.4532 -16.2884 -16.2095 -16.1857 -16.0671 -16.0370
    -1.4347  -1.4327  -1.4305  -1.4221  -1.4212  -1.4195  -1.4161  -1.4146
    -1.4125  -1.4100  -1.3949  -1.3911  -1.3864  -1.3840   7.1674   7.4169
    11.0839  12.1981  14.0231  14.8347  15.4637  15.6181  16.6394  17.5719
    19.2659  20.0677  21.2424  21.6052  21.9006  22.4565

     occupation numbers 
     1.0000   1.0000   1.0000   1.0000   1.0000   1.0000   1.0000   1.0000
     1.0000   1.0000   1.0000   1.0000   1.0000   1.0000   1.0000   1.0000
     1.0000   1.0000   1.0000   1.0000   1.0000   1.0000   1.0000   1.0000
     1.0000   1.0000   1.0000   1.0000   1.0000   1.0000   1.0000   1.0000
     0.0000   0.0000   0.0000   0.0000   0.0000   0.0000

          k = 0.4495-0.7670 0.8806 (  3252 PWs)   bands (ev):

   -49.6704 -49.6641 -16.4053 -16.2533 -16.1806 -16.1784 -16.0819 -16.0219
    -1.4328  -1.4325  -1.4309  -1.4233  -1.4204  -1.4204  -1.4164  -1.4154
    -1.4128  -1.4102  -1.3946  -1.3902  -1.3879  -1.3829   6.4759   7.1025
    11.7285  12.4102  14.6553  15.0631  15.3308  15.8389  16.5074  18.0633
    18.7471  19.9025  20.5683  20.7721  21.6516  22.8811

     occupation numbers 
     1.0000   1.0000   1.0000   1.0000   1.0000   1.0000   1.0000   1.0000
     1.0000   1.0000   1.0000   1.0000   1.0000   1.0000   1.0000   1.0000
     1.0000   1.0000   1.0000   1.0000   1.0000   1.0000   1.0000   1.0000
     1.0000   1.0000   1.0000   1.0000   1.0000   1.0000   1.0000   0.9949
     0.0000   0.0000   0.0000   0.0000   0.0000   0.0000

          k = 0.4495-0.7670 1.1742 (  3261 PWs)   bands (ev):

   -49.6718 -49.6662 -16.3182 -16.2393 -16.2036 -16.1379 -16.0885 -16.0510
    -1.4313  -1.4283  -1.4274  -1.4262  -1.4221  -1.4207  -1.4192  -1.4173
    -1.4136  -1.4106  -1.3939  -1.3906  -1.3869  -1.3841   5.9667   6.7193
    12.7689  13.2946  14.2498  14.7229  15.1612  15.6899  16.7158  17.5590
    19.3067  20.2037  20.4554  21.4084  21.8871  22.6207

     occupation numbers 
     1.0000   1.0000   1.0000   1.0000   1.0000   1.0000   1.0000   1.0000
     1.0000   1.0000   1.0000   1.0000   1.0000   1.0000   1.0000   1.0000
     1.0000   1.0000   1.0000   1.0000   1.0000   1.0000   1.0000   1.0000
     1.0000   1.0000   1.0000   1.0000   1.0000   1.0000   1.0000   1.0000
     0.0000   0.0000   0.0000   0.0000   0.0000   0.0000

          k = 0.4495-0.7670-0.0000 (  3246 PWs)   bands (ev):

   -49.6656 -49.6570 -16.3749 -16.3734 -16.2372 -16.2069 -16.1537 -16.0299
    -1.4302  -1.4291  -1.4240  -1.4233  -1.4217  -1.4216  -1.4195  -1.4169
    -1.4141  -1.4111  -1.3926  -1.3911  -1.3878  -1.3858   6.9614   7.8005
    12.1119  12.3798  13.6590  14.2112  14.2849  15.4142  17.1067  17.5521
    19.5234  20.5468  20.8314  22.5936  22.7766  23.4700

     occupation numbers 
     1.0000   1.0000   1.0000   1.0000   1.0000   1.0000   1.0000   1.0000
     1.0000   1.0000   1.0000   1.0000   1.0000   1.0000   1.0000   1.0000
     1.0000   1.0000   1.0000   1.0000   1.0000   1.0000   1.0000   1.0000
     1.0000   1.0000   1.0000   1.0000   1.0000   1.0000   1.0000   1.0000
     0.0000   0.0000   0.0000   0.0000   0.0000   0.0000

          k = 0.4496-0.6081 0.4403 (  3263 PWs)   bands (ev):

   -49.6692 -49.6598 -16.4518 -16.2934 -16.2150 -16.1940 -16.0552 -16.0311
    -1.4347  -1.4327  -1.4305  -1.4224  -1.4212  -1.4193  -1.4163  -1.4146
    -1.4125  -1.4097  -1.3953  -1.3913  -1.3864  -1.3842   6.9941   7.5899
    11.2314  12.0926  13.9230  14.6028  15.5862  15.8749  16.7331  17.5607
    19.0244  19.8377  21.2964  21.5860  22.0443  22.4698

     occupation numbers 
     1.0000   1.0000   1.0000   1.0000   1.0000   1.0000   1.0000   1.0000
     1.0000   1.0000   1.0000   1.0000   1.0000   1.0000   1.0000   1.0000
     1.0000   1.0000   1.0000   1.0000   1.0000   1.0000   1.0000   1.0000
     1.0000   1.0000   1.0000   1.0000   1.0000   1.0000   1.0000   1.0000
     0.0000   0.0000   0.0000   0.0000   0.0000   0.0000

          k = 0.4496-0.6081 0.7339 (  3254 PWs)   bands (ev):

   -49.6696 -49.6612 -16.4574 -16.2951 -16.1989 -16.1742 -16.0581 -16.0180
    -1.4354  -1.4340  -1.4318  -1.4216  -1.4209  -1.4197  -1.4157  -1.4137
    -1.4117  -1.4095  -1.3954  -1.3916  -1.3863  -1.3831   7.0502   7.4306
    10.9812  12.0301  14.4664  14.7534  15.7340  15.7943  16.4710  18.2673
    18.2732  20.0805  20.9280  21.2071  21.7360  22.5600

     occupation numbers 
     1.0000   1.0000   1.0000   1.0000   1.0000   1.0000   1.0000   1.0000
     1.0000   1.0000   1.0000   1.0000   1.0000   1.0000   1.0000   1.0000
     1.0000   1.0000   1.0000   1.0000   1.0000   1.0000   1.0000   1.0000
     1.0000   1.0000   1.0000   1.0000   1.0000   1.0000   1.0000   0.6736
     0.6515   0.0000   0.0000   0.0000   0.0000   0.0000

          k = 0.4496-0.6081 1.0274 (  3258 PWs)   bands (ev):

   -49.6700 -49.6626 -16.3999 -16.2602 -16.2081 -16.1793 -16.0720 -16.0421
    -1.4319  -1.4313  -1.4299  -1.4233  -1.4216  -1.4199  -1.4171  -1.4161
    -1.4136  -1.4103  -1.3943  -1.3901  -1.3879  -1.3841   6.4771   7.2949
    11.9003  12.4496  14.3888  14.5291  15.3795  15.6953  16.6464  17.6736
    19.2268  20.0091  20.5778  21.2972  22.0649  22.4937

     occupation numbers 
     1.0000   1.0000   1.0000   1.0000   1.0000   1.0000   1.0000   1.0000
     1.0000   1.0000   1.0000   1.0000   1.0000   1.0000   1.0000   1.0000
     1.0000   1.0000   1.0000   1.0000   1.0000   1.0000   1.0000   1.0000
     1.0000   1.0000   1.0000   1.0000   1.0000   1.0000   1.0000   1.0000
     0.0000   0.0000   0.0000   0.0000   0.0000   0.0000

          k = 0.4496-0.6081 1.3209 (  3265 PWs)   bands (ev):

   -49.6701 -49.6631 -16.3118 -16.3045 -16.2180 -16.1411 -16.1093 -16.0600
    -1.4280  -1.4278  -1.4264  -1.4253  -1.4236  -1.4228  -1.4184  -1.4178
    -1.4146  -1.4109  -1.3930  -1.3900  -1.3868  -1.3868   6.2217   7.1594
    12.8094  13.1939  13.7010  14.1739  14.8566  15.5987  17.0970  17.1912
    19.6255  19.8220  20.9536  21.5575  22.6254  22.9424

     occupation numbers 
     1.0000   1.0000   1.0000   1.0000   1.0000   1.0000   1.0000   1.0000
     1.0000   1.0000   1.0000   1.0000   1.0000   1.0000   1.0000   1.0000
     1.0000   1.0000   1.0000   1.0000   1.0000   1.0000   1.0000   1.0000
     1.0000   1.0000   1.0000   1.0000   1.0000   1.0000   1.0000   1.0000
     0.0000   0.0000   0.0000   0.0000   0.0000   0.0000

          k = 0.4496-0.6081-0.1468 (  3254 PWs)   bands (ev):

   -49.6690 -49.6589 -16.3871 -16.2997 -16.2434 -16.1904 -16.1160 -16.0259
    -1.4305  -1.4279  -1.4264  -1.4254  -1.4225  -1.4196  -1.4187  -1.4169
    -1.4145  -1.4105  -1.3936  -1.3900  -1.3880  -1.3861   6.5617   7.7130
    12.1214  12.5801  13.6293  14.0658  14.9174  15.7952  17.0972  17.4866
    19.0747  19.9117  20.9025  22.1954  22.4838  22.8436

     occupation numbers 
     1.0000   1.0000   1.0000   1.0000   1.0000   1.0000   1.0000   1.0000
     1.0000   1.0000   1.0000   1.0000   1.0000   1.0000   1.0000   1.0000
     1.0000   1.0000   1.0000   1.0000   1.0000   1.0000   1.0000   1.0000
     1.0000   1.0000   1.0000   1.0000   1.0000   1.0000   1.0000   1.0000
     0.0000   0.0000   0.0000   0.0000   0.0000   0.0000

     the Fermi energy is    18.3106 ev

!    total energy              =   -2549.13376656 Ry
     total all-electron energy =    -63767.572790 Ry
     estimated scf accuracy    <       0.00000003 Ry
     smearing contrib. (-TS)   =      -0.00045093 Ry
     internal energy E=F+TS    =   -2549.13331563 Ry

     The total energy is F=E-TS. E is the sum of the following terms:
     one-electron contribution =   -1034.14103738 Ry
     hartree contribution      =     598.72298175 Ry
     xc contribution           =    -143.32481087 Ry
     ewald contribution        =    -792.92333941 Ry
     one-center paw contrib.   =   -1177.46710972 Ry
      -> PAW hartree energy AE =     595.67291891 Ry
      -> PAW hartree energy PS =    -589.10225727 Ry
      -> PAW xc energy AE      =    -619.92927492 Ry
      -> PAW xc energy PS      =      65.47879373 Ry
      -> total E_H with PAW    =     605.29364338 Ry
      -> total E_XC with PAW   =    -697.77529206 Ry

     convergence has been achieved in   7 iterations

     Writing all to output data dir ./out/TaP.save/

     init_run     :      7.52s CPU      7.66s WALL (       1 calls)
     electrons    :    164.15s CPU    165.73s WALL (       1 calls)

     Called by init_run:
     wfcinit      :      5.67s CPU      5.76s WALL (       1 calls)
     wfcinit:atom :      0.03s CPU      0.03s WALL (     205 calls)
     wfcinit:wfcr :      5.46s CPU      5.55s WALL (     205 calls)
     potinit      :      0.78s CPU      0.79s WALL (       1 calls)
     hinit0       :      0.91s CPU      0.92s WALL (       1 calls)

     Called by electrons:
     c_bands      :    142.43s CPU    143.31s WALL (       8 calls)
     sum_band     :     18.93s CPU     19.28s WALL (       8 calls)
     v_of_rho     :      0.33s CPU      0.34s WALL (       8 calls)
     v_h          :      0.02s CPU      0.02s WALL (       8 calls)
     v_xc         :      0.31s CPU      0.32s WALL (       8 calls)
     newd         :      0.76s CPU      1.02s WALL (       8 calls)
     PAW_pot      :      2.03s CPU      2.14s WALL (       8 calls)
     mix_rho      :      0.01s CPU      0.02s WALL (       8 calls)

     Called by c_bands:
     init_us_2    :      0.62s CPU      0.63s WALL (    3485 calls)
     init_us_2:cp :      0.62s CPU      0.62s WALL (    3485 calls)
     cegterg      :    140.30s CPU    141.17s WALL (    1640 calls)

     Called by sum_band:
     sum_band:wei :      0.03s CPU      0.03s WALL (       8 calls)
     sum_band:loo :     18.09s CPU     18.21s WALL (       8 calls)
     sum_band:buf :      0.05s CPU      0.05s WALL (    1640 calls)
     sum_band:ini :      0.28s CPU      0.28s WALL (    1640 calls)
     sum_band:cal :      2.42s CPU      2.44s WALL (    1640 calls)
     sum_band:bec :      0.30s CPU      0.30s WALL (    1640 calls)
     addusdens    :      0.76s CPU      0.98s WALL (       8 calls)
                                        0.00s GPU  (       8 calls)
     addusd:skk   :      0.00s CPU      0.00s WALL (      16 calls)
                                        0.00s GPU  (      16 calls)

     Called by *egterg:
     cdiaghg      :     19.15s CPU     19.20s WALL (    8048 calls)
     cegterg:over :      8.82s CPU      8.84s WALL (    6613 calls)
     cegterg:upda :      3.14s CPU      3.14s WALL (    6613 calls)
     cegterg:last :      8.20s CPU      8.20s WALL (    4136 calls)
     h_psi        :     95.68s CPU     96.54s WALL (    8458 calls)
     s_psi        :      5.80s CPU      5.83s WALL (    8458 calls)
     g_psi        :      0.11s CPU      0.11s WALL (    6613 calls)

     Called by h_psi:
     h_psi:calbec :      7.61s CPU      7.68s WALL (    8458 calls)
     vloc_psi     :     82.12s CPU     82.87s WALL (    8458 calls)
     add_vuspsi   :      5.81s CPU      5.85s WALL (    8458 calls)

     General routines
     calbec       :     10.01s CPU     10.10s WALL (   10098 calls)
     fft          :      0.51s CPU      0.52s WALL (     103 calls)
     ffts         :      0.26s CPU      0.26s WALL (      16 calls)
     fftw         :     77.10s CPU     77.75s WALL (  435426 calls)
     interpolate  :      0.27s CPU      0.27s WALL (       8 calls)

     Parallel routines

     PAW routines
     PAW_pot      :      2.03s CPU      2.14s WALL (       8 calls)
     PAW_symme    :      0.01s CPU      0.01s WALL (      16 calls)

     PWSCF        :   2m52.45s CPU   2m54.46s WALL


   This run was terminated on:   2:19:34  30Jul2023            

=------------------------------------------------------------------------------=
   JOB DONE.
=------------------------------------------------------------------------------=
