
     Program PWSCF v.7.3 starts on 19Feb2024 at 23:15:57 

     This program is part of the open-source Quantum ESPRESSO suite
     for quantum simulation of materials; please cite
         "P. Giannozzi et al., J. Phys.:Condens. Matter 21 395502 (2009);
         "P. Giannozzi et al., J. Phys.:Condens. Matter 29 465901 (2017);
         "P. Giannozzi et al., J. Chem. Phys. 152 154105 (2020);
          URL http://www.quantum-espresso.org", 
     in publications or presentations arising from this work. More details at
     http://www.quantum-espresso.org/quote

     Parallel version (MPI), running on    48 processors

     MPI processes distributed on     1 nodes
     199256 MiB available memory on the printing compute node when the environment starts

     Waiting for input...
     Reading input from standard input

     Current dimensions of program PWSCF are:
     Max number of different atomic species (ntypx) = 10
     Max number of k-points (npk) =  40000
     Max angular momentum in pseudopotentials (lmaxx) =  4
     Message from routine setup:
     using ibrav=0 with symmetry is DISCOURAGED, use correct ibrav instead

     R & G space division:  proc/nbgrp/npool/nimage =      48
     Subspace diagonalization in iterative solution of the eigenvalue problem:
     one sub-group per band group will be used
     custom distributed-memory algorithm (size of sub-group:  2*  2 procs)


     Parallelization info
     --------------------
     sticks:   dense  smooth     PW     G-vecs:    dense   smooth      PW
     Min         105      52     14                 9659     3410     474
     Max         106      53     15                 9666     3417     481
     Sum        5057    2537    673               463729   163913   22827

     Using Slab Decomposition



     bravais-lattice index     =            0
     lattice parameter (alat)  =      12.6022  a.u.
     unit-cell volume          =    3433.0998 (a.u.)^3
     number of atoms/cell      =           33
     number of atomic types    =            3
     number of electrons       =       289.00
     number of Kohn-Sham states=          174
     kinetic-energy cutoff     =      50.0000  Ry
     charge density cutoff     =     400.0000  Ry
     scf convergence threshold =      1.0E-04
     mixing beta               =       0.3000
     number of iterations used =            8  plain     mixing
     energy convergence thresh.=      1.0E-05
     force convergence thresh. =      1.0E-04
     Exchange-correlation= SLA  PW   PBE  PBE
                           (   1   4   3   4   0   0   0)
     nstep                     =           50


     celldm(1)=  12.602165  celldm(2)=   0.000000  celldm(3)=   0.000000
     celldm(4)=   0.000000  celldm(5)=   0.000000  celldm(6)=   0.000000

     crystal axes: (cart. coord. in units of alat)
               a(1) = (   1.000000   0.000000   0.000000 )  
               a(2) = (   0.000000   1.000017   0.000000 )  
               a(3) = (   0.000000   0.000000   1.715313 )  

     reciprocal axes: (cart. coord. in units 2 pi/alat)
               b(1) = (  1.000000  0.000000  0.000000 )  
               b(2) = (  0.000000  0.999983  0.000000 )  
               b(3) = (  0.000000  0.000000  0.582984 )  


     PseudoPot. # 1 for H  read from file:
     ../00_pseudos/H.pbe-rrkjus_psl.1.0.0.UPF
     MD5 check sum: f52b6d4d1c606e5624b1dc7b2218f220
     Pseudo is Ultrasoft, Zval =  1.0
     Generated using "atomic" code by A. Dal Corso  v.5.1
     Using radial grid of  929 points,  2 beta functions with: 
                l(1) =   0
                l(2) =   0
     Q(r) pseudized with 0 coefficients 


     PseudoPot. # 2 for P  read from file:
     ../00_pseudos/P.pbe-n-rrkjus_psl.1.0.0.UPF
     MD5 check sum: 8b930f418f0a4573dca56cd030ffe088
     Pseudo is Ultrasoft + core correction, Zval =  5.0
     Generated using "atomic" code by A. Dal Corso  v.5.1
     Using radial grid of 1147 points,  6 beta functions with: 
                l(1) =   0
                l(2) =   0
                l(3) =   1
                l(4) =   1
                l(5) =   2
                l(6) =   2
     Q(r) pseudized with 0 coefficients 


     PseudoPot. # 3 for Ta read from file:
     ../00_pseudos/Ta_pbe_v1.uspp.F.UPF
     MD5 check sum: f8bbe9446314a3b8ea5d9f3e3836c939
     Pseudo is Ultrasoft + core correction, Zval = 13.0
     Generated by new atomic code, or converted to UPF format
     Using radial grid of  921 points,  7 beta functions with: 
                l(1) =   0
                l(2) =   0
                l(3) =   1
                l(4) =   1
                l(5) =   2
                l(6) =   2
                l(7) =   3
     Q(r) pseudized with  6 coefficients,  rinner =    1.300   1.300   1.300
                                                       1.300   1.300   1.300
                                                       1.300

     atomic species   valence    mass     pseudopotential
     H                 1.00     1.00794     H ( 1.00)
     P                 5.00    30.97376     P ( 1.00)
     Ta               13.00   180.94788     Ta( 1.00)

      4 Sym. Ops. (no inversion) found


                                    s                        frac. trans.

      isym =  1     identity                                     

 cryst.   s( 1) = (     1          0          0      )
                  (     0          1          0      )
                  (     0          0          1      )

 cart.    s( 1) = (  1.0000000  0.0000000  0.0000000 )
                  (  0.0000000  1.0000000  0.0000000 )
                  (  0.0000000  0.0000000  1.0000000 )


      isym =  2     180 deg rotation - cart. axis [0,0,1]        

 cryst.   s( 2) = (    -1          0          0      )
                  (     0         -1          0      )
                  (     0          0          1      )

 cart.    s( 2) = ( -1.0000000  0.0000000  0.0000000 )
                  (  0.0000000 -1.0000000  0.0000000 )
                  (  0.0000000  0.0000000  1.0000000 )


      isym =  3     inv. 180 deg rotation - cart. axis [0,1,0]   

 cryst.   s( 3) = (     1          0          0      )
                  (     0         -1          0      )
                  (     0          0          1      )

 cart.    s( 3) = (  1.0000000  0.0000000  0.0000000 )
                  (  0.0000000 -1.0000000  0.0000000 )
                  (  0.0000000  0.0000000  1.0000000 )


      isym =  4     inv. 180 deg rotation - cart. axis [1,0,0]   

 cryst.   s( 4) = (    -1          0          0      )
                  (     0          1          0      )
                  (     0          0          1      )

 cart.    s( 4) = ( -1.0000000  0.0000000  0.0000000 )
                  (  0.0000000  1.0000000  0.0000000 )
                  (  0.0000000  0.0000000  1.0000000 )


   Cartesian axes

     site n.     atom                  positions (alat units)
         1        H      tau(   1) = (   0.0000000   0.0000000   0.2864949  )
         2        P      tau(   2) = (   0.0000000   0.0000000   1.0007895  )
         3        P      tau(   3) = (   0.0000000   0.5000087   1.0007895  )
         4        P      tau(   4) = (   0.5000000   0.0000000   1.0007895  )
         5        P      tau(   5) = (   0.5000000   0.5000087   1.0007895  )
         6        P      tau(   6) = (   0.2500000   0.2500044   0.1431329  )
         7        P      tau(   7) = (   0.2500000   0.7500131   0.1431329  )
         8        P      tau(   8) = (   0.7500000   0.2500044   0.1431329  )
         9        P      tau(   9) = (   0.7500000   0.7500131   0.1431329  )
        10        P      tau(  10) = (   0.2500000   0.0000000   0.5719655  )
        11        P      tau(  11) = (   0.2500000   0.5000087   0.5719655  )
        12        P      tau(  12) = (   0.7500000   0.0000000   0.5719655  )
        13        P      tau(  13) = (   0.7500000   0.5000087   0.5719655  )
        14        P      tau(  14) = (   0.0000000   0.2500044   1.4296216  )
        15        P      tau(  15) = (   0.0000000   0.7500131   1.4296216  )
        16        P      tau(  16) = (   0.5000000   0.2500044   1.4296216  )
        17        P      tau(  17) = (   0.5000000   0.7500131   1.4296216  )
        18        Ta     tau(  18) = (   0.0000000   0.0000000   0.0006095  )
        19        Ta     tau(  19) = (   0.0000000   0.5000087   0.0006095  )
        20        Ta     tau(  20) = (   0.5000000   0.0000000   0.0006095  )
        21        Ta     tau(  21) = (   0.5000000   0.5000087   0.0006095  )
        22        Ta     tau(  22) = (   0.2500000   0.2500044   0.8582661  )
        23        Ta     tau(  23) = (   0.2500000   0.7500131   0.8582661  )
        24        Ta     tau(  24) = (   0.7500000   0.2500044   0.8582661  )
        25        Ta     tau(  25) = (   0.7500000   0.7500131   0.8582661  )
        26        Ta     tau(  26) = (   0.0000000   0.2500044   0.4294318  )
        27        Ta     tau(  27) = (   0.0000000   0.7500131   0.4294318  )
        28        Ta     tau(  28) = (   0.5000000   0.2500044   0.4294318  )
        29        Ta     tau(  29) = (   0.5000000   0.7500131   0.4294318  )
        30        Ta     tau(  30) = (   0.2500000   0.0000000   1.2870883  )
        31        Ta     tau(  31) = (   0.2500000   0.5000087   1.2870883  )
        32        Ta     tau(  32) = (   0.7500000   0.0000000   1.2870883  )
        33        Ta     tau(  33) = (   0.7500000   0.5000087   1.2870883  )

   Crystallographic axes

     site n.     atom                  positions (cryst. coord.)
         1        H      tau(   1) = (  0.0000000  0.0000000  0.1670220  )
         2        P      tau(   2) = (  0.0000000  0.0000000  0.5834443  )
         3        P      tau(   3) = (  0.0000000  0.5000000  0.5834443  )
         4        P      tau(   4) = (  0.5000000  0.0000000  0.5834443  )
         5        P      tau(   5) = (  0.5000000  0.5000000  0.5834443  )
         6        P      tau(   6) = (  0.2500000  0.2500000  0.0834442  )
         7        P      tau(   7) = (  0.2500000  0.7500000  0.0834442  )
         8        P      tau(   8) = (  0.7500000  0.2500000  0.0834442  )
         9        P      tau(   9) = (  0.7500000  0.7500000  0.0834442  )
        10        P      tau(  10) = (  0.2500000  0.0000000  0.3334467  )
        11        P      tau(  11) = (  0.2500000  0.5000000  0.3334467  )
        12        P      tau(  12) = (  0.7500000  0.0000000  0.3334467  )
        13        P      tau(  13) = (  0.7500000  0.5000000  0.3334467  )
        14        P      tau(  14) = (  0.0000000  0.2500000  0.8334465  )
        15        P      tau(  15) = (  0.0000000  0.7500000  0.8334465  )
        16        P      tau(  16) = (  0.5000000  0.2500000  0.8334465  )
        17        P      tau(  17) = (  0.5000000  0.7500000  0.8334465  )
        18        Ta     tau(  18) = (  0.0000000  0.0000000  0.0003553  )
        19        Ta     tau(  19) = (  0.0000000  0.5000000  0.0003553  )
        20        Ta     tau(  20) = (  0.5000000  0.0000000  0.0003553  )
        21        Ta     tau(  21) = (  0.5000000  0.5000000  0.0003553  )
        22        Ta     tau(  22) = (  0.2500000  0.2500000  0.5003554  )
        23        Ta     tau(  23) = (  0.2500000  0.7500000  0.5003554  )
        24        Ta     tau(  24) = (  0.7500000  0.2500000  0.5003554  )
        25        Ta     tau(  25) = (  0.7500000  0.7500000  0.5003554  )
        26        Ta     tau(  26) = (  0.0000000  0.2500000  0.2503519  )
        27        Ta     tau(  27) = (  0.0000000  0.7500000  0.2503519  )
        28        Ta     tau(  28) = (  0.5000000  0.2500000  0.2503519  )
        29        Ta     tau(  29) = (  0.5000000  0.7500000  0.2503519  )
        30        Ta     tau(  30) = (  0.2500000  0.0000000  0.7503519  )
        31        Ta     tau(  31) = (  0.2500000  0.5000000  0.7503519  )
        32        Ta     tau(  32) = (  0.7500000  0.0000000  0.7503519  )
        33        Ta     tau(  33) = (  0.7500000  0.5000000  0.7503519  )

     number of k points=     8  Methfessel-Paxton smearing, width (Ry)=  0.0100
                       cart. coord. in units 2pi/alat
        k(    1) = (   0.0000000   0.0000000   0.0000000), wk =   0.0740741
        k(    2) = (   0.0000000   0.0000000   0.1943280), wk =   0.1481481
        k(    3) = (   0.0000000   0.3333275   0.0000000), wk =   0.1481481
        k(    4) = (   0.0000000   0.3333275   0.1943280), wk =   0.2962963
        k(    5) = (   0.3333333   0.0000000   0.0000000), wk =   0.1481481
        k(    6) = (   0.3333333   0.0000000   0.1943280), wk =   0.2962963
        k(    7) = (   0.3333333   0.3333275   0.0000000), wk =   0.2962963
        k(    8) = (   0.3333333   0.3333275   0.1943280), wk =   0.5925926

                       cryst. coord.
        k(    1) = (   0.0000000   0.0000000   0.0000000), wk =   0.0740741
        k(    2) = (   0.0000000   0.0000000   0.3333333), wk =   0.1481481
        k(    3) = (   0.0000000   0.3333333   0.0000000), wk =   0.1481481
        k(    4) = (   0.0000000   0.3333333   0.3333333), wk =   0.2962963
        k(    5) = (   0.3333333   0.0000000   0.0000000), wk =   0.1481481
        k(    6) = (   0.3333333   0.0000000   0.3333333), wk =   0.2962963
        k(    7) = (   0.3333333   0.3333333   0.0000000), wk =   0.2962963
        k(    8) = (   0.3333333   0.3333333   0.3333333), wk =   0.5925926

     Dense  grid:   463729 G-vectors     FFT dimensions: (  81,  81, 144)

     Smooth grid:   163913 G-vectors     FFT dimensions: (  60,  60, 100)

     Dynamical RAM for                 wfc:       1.13 MB

     Dynamical RAM for     wfc (w. buffer):      10.20 MB

     Dynamical RAM for           str. fact:       0.44 MB

     Dynamical RAM for           local pot:       0.00 MB

     Dynamical RAM for          nlocal pot:       4.50 MB

     Dynamical RAM for                qrad:       8.99 MB

     Dynamical RAM for          rho,v,vnew:       0.89 MB

     Dynamical RAM for               rhoin:       0.30 MB

     Dynamical RAM for            rho*nmix:       2.36 MB

     Dynamical RAM for           G-vectors:       0.58 MB

     Dynamical RAM for          h,s,v(r/c):       1.39 MB

     Dynamical RAM for          <psi|beta>:       1.83 MB

     Dynamical RAM for                 psi:       2.27 MB

     Dynamical RAM for                hpsi:       2.27 MB

     Dynamical RAM for                spsi:       2.27 MB

     Dynamical RAM for      wfcinit/wfcrot:       5.27 MB

     Dynamical RAM for           addusdens:      54.26 MB

     Dynamical RAM for          addusforce:      58.88 MB

     Estimated static dynamical RAM per process >      27.24 MB

     Estimated max dynamical RAM per process >      88.48 MB

     Estimated total dynamical RAM >       4.15 GB

     Initial potential from superposition of free atoms

     starting charge     288.9796, renormalised to     289.0000

     negative rho (up, down):  1.513E+00 0.000E+00
     Starting wfcs are  273 randomized atomic wfcs

     total cpu time spent up to now is       17.8 secs

     Self-consistent Calculation

     iteration #  1     ecut=    50.00 Ry     beta= 0.30
     Davidson diagonalization with overlap

---- Real-time Memory Report at c_bands before calling an iterative solver
           121 MiB given to the printing process from OS
             0 MiB allocation reported by mallinfo(arena+hblkhd)
        196796 MiB available memory on the node where the printing process lives
------------------
     c_bands:  2 eigenvalues not converged
     c_bands:  2 eigenvalues not converged
     c_bands:  2 eigenvalues not converged
     ethr =  1.00E-04,  avg # of iterations = 19.0

     negative rho (up, down):  1.537E+00 0.000E+00

     total cpu time spent up to now is      105.7 secs

     total energy              =   -2498.11640793 Ry
     estimated scf accuracy    <       1.09504253 Ry

     iteration #  2     ecut=    50.00 Ry     beta= 0.30
     Davidson diagonalization with overlap

---- Real-time Memory Report at c_bands before calling an iterative solver
           202 MiB given to the printing process from OS
             0 MiB allocation reported by mallinfo(arena+hblkhd)
        195424 MiB available memory on the node where the printing process lives
------------------
     ethr =  3.79E-04,  avg # of iterations =  2.0

     negative rho (up, down):  1.562E+00 0.000E+00

     total cpu time spent up to now is      137.7 secs

     total energy              =   -2498.18493503 Ry
     estimated scf accuracy    <       0.19301095 Ry

     iteration #  3     ecut=    50.00 Ry     beta= 0.30
     Davidson diagonalization with overlap

---- Real-time Memory Report at c_bands before calling an iterative solver
           207 MiB given to the printing process from OS
             0 MiB allocation reported by mallinfo(arena+hblkhd)
        195396 MiB available memory on the node where the printing process lives
------------------
     ethr =  6.68E-05,  avg # of iterations = 12.8

     negative rho (up, down):  1.567E+00 0.000E+00

     total cpu time spent up to now is      193.5 secs

     total energy              =   -2498.16882756 Ry
     estimated scf accuracy    <       0.86078127 Ry

     iteration #  4     ecut=    50.00 Ry     beta= 0.30
     Davidson diagonalization with overlap

---- Real-time Memory Report at c_bands before calling an iterative solver
           210 MiB given to the printing process from OS
             0 MiB allocation reported by mallinfo(arena+hblkhd)
        195401 MiB available memory on the node where the printing process lives
------------------
     c_bands:  1 eigenvalues not converged
     ethr =  6.68E-05,  avg # of iterations =  8.8

     negative rho (up, down):  1.596E+00 0.000E+00

     total cpu time spent up to now is      231.4 secs

     total energy              =   -2498.21778796 Ry
     estimated scf accuracy    <       0.03621697 Ry

     iteration #  5     ecut=    50.00 Ry     beta= 0.30
     Davidson diagonalization with overlap

---- Real-time Memory Report at c_bands before calling an iterative solver
           213 MiB given to the printing process from OS
             0 MiB allocation reported by mallinfo(arena+hblkhd)
        195284 MiB available memory on the node where the printing process lives
------------------
     c_bands:  1 eigenvalues not converged
     c_bands:  1 eigenvalues not converged
     c_bands:  1 eigenvalues not converged
     ethr =  1.25E-05,  avg # of iterations = 16.4

     negative rho (up, down):  1.600E+00 0.000E+00

     total cpu time spent up to now is      295.2 secs

     total energy              =   -2498.22173763 Ry
     estimated scf accuracy    <       0.02515369 Ry

     iteration #  6     ecut=    50.00 Ry     beta= 0.30
     Davidson diagonalization with overlap

---- Real-time Memory Report at c_bands before calling an iterative solver
           215 MiB given to the printing process from OS
             0 MiB allocation reported by mallinfo(arena+hblkhd)
        195275 MiB available memory on the node where the printing process lives
------------------
     c_bands:  1 eigenvalues not converged
     ethr =  8.70E-06,  avg # of iterations =  4.2

     negative rho (up, down):  1.601E+00 0.000E+00

     total cpu time spent up to now is      325.5 secs

     total energy              =   -2498.22145170 Ry
     estimated scf accuracy    <       0.00903952 Ry

     iteration #  7     ecut=    50.00 Ry     beta= 0.30
     Davidson diagonalization with overlap

---- Real-time Memory Report at c_bands before calling an iterative solver
           216 MiB given to the printing process from OS
             0 MiB allocation reported by mallinfo(arena+hblkhd)
        195275 MiB available memory on the node where the printing process lives
------------------
     c_bands:  1 eigenvalues not converged
     ethr =  3.13E-06,  avg # of iterations =  7.8

     negative rho (up, down):  1.603E+00 0.000E+00

     total cpu time spent up to now is      360.4 secs

     total energy              =   -2498.22151729 Ry
     estimated scf accuracy    <       0.00307378 Ry

     iteration #  8     ecut=    50.00 Ry     beta= 0.30
     Davidson diagonalization with overlap

---- Real-time Memory Report at c_bands before calling an iterative solver
           218 MiB given to the printing process from OS
             0 MiB allocation reported by mallinfo(arena+hblkhd)
        195274 MiB available memory on the node where the printing process lives
------------------
     c_bands:  1 eigenvalues not converged
     ethr =  1.06E-06,  avg # of iterations = 12.0

     negative rho (up, down):  1.605E+00 0.000E+00

     total cpu time spent up to now is      412.2 secs

     total energy              =   -2498.22229025 Ry
     estimated scf accuracy    <       0.00131744 Ry

     iteration #  9     ecut=    50.00 Ry     beta= 0.30
     Davidson diagonalization with overlap

---- Real-time Memory Report at c_bands before calling an iterative solver
           219 MiB given to the printing process from OS
             0 MiB allocation reported by mallinfo(arena+hblkhd)
        195150 MiB available memory on the node where the printing process lives
------------------
     ethr =  4.56E-07,  avg # of iterations =  3.2

     negative rho (up, down):  1.605E+00 0.000E+00

     total cpu time spent up to now is      441.3 secs

     total energy              =   -2498.22208205 Ry
     estimated scf accuracy    <       0.00104873 Ry

     iteration # 10     ecut=    50.00 Ry     beta= 0.30
     Davidson diagonalization with overlap

---- Real-time Memory Report at c_bands before calling an iterative solver
           223 MiB given to the printing process from OS
             0 MiB allocation reported by mallinfo(arena+hblkhd)
        195120 MiB available memory on the node where the printing process lives
------------------
     ethr =  3.63E-07,  avg # of iterations =  2.0

     negative rho (up, down):  1.605E+00 0.000E+00

     total cpu time spent up to now is      470.7 secs

     total energy              =   -2498.22209896 Ry
     estimated scf accuracy    <       0.00014880 Ry

     iteration # 11     ecut=    50.00 Ry     beta= 0.30
     Davidson diagonalization with overlap

---- Real-time Memory Report at c_bands before calling an iterative solver
           223 MiB given to the printing process from OS
             0 MiB allocation reported by mallinfo(arena+hblkhd)
        195099 MiB available memory on the node where the printing process lives
------------------
     ethr =  5.15E-08,  avg # of iterations =  4.5

     negative rho (up, down):  1.605E+00 0.000E+00

     total cpu time spent up to now is      508.4 secs

     End of self-consistent calculation

          k = 0.0000 0.0000 0.0000 ( 20433 PWs)   bands (ev):

   -52.3418 -52.3195 -52.3128 -52.2084 -52.2031 -52.1993 -52.1976 -52.1922
   -52.1856 -52.1792 -52.1774 -52.1717 -52.1713 -52.1649 -52.1644 -52.1577
   -19.0733 -19.0194 -19.0139 -18.9840 -18.9565 -18.9356 -18.9347 -18.9107
   -18.9024 -18.8866 -18.8632 -18.8489 -18.8359 -18.8026 -18.7939 -18.7904
   -18.7776 -18.7723 -18.7645 -18.7518 -18.7472 -18.7463 -18.7380 -18.7209
   -18.7133 -18.7106 -18.7097 -18.7009 -18.6960 -18.6917 -18.6823 -18.6701
   -18.6606 -18.6531 -18.6245 -18.6121 -18.6073 -18.6011 -18.5839 -18.5817
   -18.5805 -18.5777 -18.5692 -18.5633 -18.5487 -18.5454 -18.5357 -18.5284
     2.1668   3.2492   3.3104   4.7332   4.7379   4.8054   4.8191   4.9704
     4.9961   5.0442   5.0693   5.0986   5.1975   5.2025   5.2949   5.3017
     7.5148   8.5652   8.5783   8.6074   8.8323   9.4666   9.7115   9.7904
     9.8080  10.1236  10.1735  10.2138  10.2595  10.6176  10.6540  10.7591
    10.7930  10.8134  11.2737  11.4956  11.8248  11.8763  11.8915  12.1346
    12.3117  12.3615  12.3926  12.4175  12.5209  12.5719  12.6057  12.6300
    12.6574  12.8873  12.8873  12.8892  13.0458  13.3054  13.3421  13.3578
    13.3587  13.4044  13.4186  13.4412  13.5328  13.5805  13.5965  13.7062
    13.9528  14.0316  14.0351  14.0464  14.2099  14.2410  14.4402  14.8830
    14.8863  14.9221  14.9428  14.9497  15.6464  15.6640  15.6927  15.7265
    15.7855  15.8705  15.8897  15.9067  16.9191  17.3458  17.3723  17.5540
    17.6030  17.6531  17.6743  17.8687  17.9565  18.2972  18.4045  18.4340
    18.4509  18.6022  18.6436  18.8631  18.9073  18.9233  18.9755  19.0110
    19.1673  19.1689  19.2234  19.2584  19.3435  19.3545

     occupation numbers 
     1.0000   1.0000   1.0000   1.0000   1.0000   1.0000   1.0000   1.0000
     1.0000   1.0000   1.0000   1.0000   1.0000   1.0000   1.0000   1.0000
     1.0000   1.0000   1.0000   1.0000   1.0000   1.0000   1.0000   1.0000
     1.0000   1.0000   1.0000   1.0000   1.0000   1.0000   1.0000   1.0000
     1.0000   1.0000   1.0000   1.0000   1.0000   1.0000   1.0000   1.0000
     1.0000   1.0000   1.0000   1.0000   1.0000   1.0000   1.0000   1.0000
     1.0000   1.0000   1.0000   1.0000   1.0000   1.0000   1.0000   1.0000
     1.0000   1.0000   1.0000   1.0000   1.0000   1.0000   1.0000   1.0000
     1.0000   1.0000   1.0000   1.0000   1.0000   1.0000   1.0000   1.0000
     1.0000   1.0000   1.0000   1.0000   1.0000   1.0000   1.0000   1.0000
     1.0000   1.0000   1.0000   1.0000   1.0000   1.0000   1.0000   1.0000
     1.0000   1.0000   1.0000   1.0000   1.0000   1.0000   1.0000   1.0000
     1.0000   1.0000   1.0000   1.0000   1.0000   1.0000   1.0000   1.0000
     1.0000   1.0000   1.0000   1.0000   1.0000   1.0000   1.0000   1.0000
     1.0000   1.0000   1.0000   1.0000   1.0000   1.0000   1.0000   1.0000
     1.0000   1.0000   1.0000   1.0000   1.0000   1.0000   1.0000   1.0000
     1.0000   1.0000   1.0000   1.0000   1.0000   1.0000   1.0000   1.0000
     1.0000   1.0000   1.0000   1.0000   1.0005   1.0008   1.0021   1.0055
     1.0195   1.0298   1.0135   0.9868  -0.0000  -0.0000  -0.0000  -0.0000
    -0.0000  -0.0000  -0.0000  -0.0000  -0.0000  -0.0000  -0.0000  -0.0000
    -0.0000  -0.0000  -0.0000  -0.0000  -0.0000  -0.0000  -0.0000  -0.0000
    -0.0000  -0.0000  -0.0000  -0.0000  -0.0000  -0.0000

          k = 0.0000 0.0000 0.1943 ( 20536 PWs)   bands (ev):

   -52.3418 -52.3195 -52.3128 -52.2084 -52.2032 -52.1993 -52.1976 -52.1923
   -52.1855 -52.1792 -52.1775 -52.1717 -52.1713 -52.1650 -52.1644 -52.1577
   -19.0718 -19.0190 -19.0136 -18.9840 -18.9592 -18.9354 -18.9332 -18.9084
   -18.9024 -18.8848 -18.8643 -18.8501 -18.8362 -18.8013 -18.7946 -18.7907
   -18.7777 -18.7728 -18.7664 -18.7633 -18.7518 -18.7472 -18.7380 -18.7290
   -18.7184 -18.7114 -18.7099 -18.7009 -18.6919 -18.6863 -18.6823 -18.6701
   -18.6529 -18.6296 -18.6242 -18.6073 -18.6015 -18.6010 -18.5848 -18.5816
   -18.5815 -18.5776 -18.5697 -18.5638 -18.5544 -18.5488 -18.5454 -18.5284
     2.2903   2.7036   3.9862   4.6574   4.7350   4.7406   4.8131   4.8208
     4.9919   5.0357   5.0660   5.0932   5.1977   5.2027   5.2950   5.3019
     7.5563   8.6142   8.6255   8.6590   9.1491   9.4441   9.6208   9.6922
     9.6994  10.0819  10.0996  10.1845  10.2125  10.2175  10.7132  10.7714
    10.8041  10.8326  10.9787  11.9248  11.9671  11.9854  12.0365  12.1796
    12.3174  12.3672  12.3997  12.4249  12.4568  12.5504  12.5852  12.6219
    12.6361  12.9617  12.9689  13.0444  13.1972  13.2034  13.2606  13.2916
    13.3221  13.3230  13.3842  13.3944  13.4958  13.5185  13.5255  13.6772
    13.8524  14.0924  14.1405  14.1527  14.4290  14.4420  14.4512  14.7886
    14.8004  14.8865  14.8902  14.9250  15.5436  15.5748  15.6105  15.6459
    15.8839  15.9701  15.9981  16.0072  16.9678  17.1429  17.3663  17.3980
    17.4590  17.4797  17.5979  17.7983  18.0374  18.2920  18.3824  18.4339
    18.5738  18.7243  18.7348  18.7693  18.7945  18.8712  18.8754  18.8916
    18.9371  19.0290  19.0401  19.2411  19.2604  19.3429

     occupation numbers 
     1.0000   1.0000   1.0000   1.0000   1.0000   1.0000   1.0000   1.0000
     1.0000   1.0000   1.0000   1.0000   1.0000   1.0000   1.0000   1.0000
     1.0000   1.0000   1.0000   1.0000   1.0000   1.0000   1.0000   1.0000
     1.0000   1.0000   1.0000   1.0000   1.0000   1.0000   1.0000   1.0000
     1.0000   1.0000   1.0000   1.0000   1.0000   1.0000   1.0000   1.0000
     1.0000   1.0000   1.0000   1.0000   1.0000   1.0000   1.0000   1.0000
     1.0000   1.0000   1.0000   1.0000   1.0000   1.0000   1.0000   1.0000
     1.0000   1.0000   1.0000   1.0000   1.0000   1.0000   1.0000   1.0000
     1.0000   1.0000   1.0000   1.0000   1.0000   1.0000   1.0000   1.0000
     1.0000   1.0000   1.0000   1.0000   1.0000   1.0000   1.0000   1.0000
     1.0000   1.0000   1.0000   1.0000   1.0000   1.0000   1.0000   1.0000
     1.0000   1.0000   1.0000   1.0000   1.0000   1.0000   1.0000   1.0000
     1.0000   1.0000   1.0000   1.0000   1.0000   1.0000   1.0000   1.0000
     1.0000   1.0000   1.0000   1.0000   1.0000   1.0000   1.0000   1.0000
     1.0000   1.0000   1.0000   1.0000   1.0000   1.0000   1.0000   1.0000
     1.0000   1.0000   1.0000   1.0000   1.0000   1.0000   1.0000   1.0000
     1.0000   1.0000   1.0000   1.0000   1.0000   1.0000   1.0000   1.0000
     1.0000   1.0000   1.0000   1.0000   1.0000   1.0000   1.0001   1.0004
     1.0198   0.7573   0.5973   0.5416  -0.0000  -0.0000  -0.0000  -0.0000
    -0.0000  -0.0000  -0.0000  -0.0000  -0.0000  -0.0000  -0.0000  -0.0000
    -0.0000  -0.0000  -0.0000  -0.0000  -0.0000  -0.0000  -0.0000  -0.0000
    -0.0000  -0.0000  -0.0000  -0.0000  -0.0000  -0.0000

          k = 0.0000 0.3333 0.0000 ( 20500 PWs)   bands (ev):

   -52.3417 -52.3178 -52.3145 -52.2067 -52.2031 -52.2011 -52.1969 -52.1930
   -52.1836 -52.1795 -52.1773 -52.1733 -52.1707 -52.1653 -52.1640 -52.1587
   -19.0471 -19.0106 -18.9929 -18.9766 -18.9322 -18.9070 -18.8893 -18.8860
   -18.8821 -18.8676 -18.8638 -18.8482 -18.8343 -18.8138 -18.7961 -18.7925
   -18.7722 -18.7696 -18.7672 -18.7642 -18.7591 -18.7566 -18.7473 -18.7429
   -18.7289 -18.7163 -18.7003 -18.6993 -18.6954 -18.6869 -18.6832 -18.6799
   -18.6750 -18.6416 -18.6395 -18.6307 -18.6236 -18.6182 -18.6031 -18.5959
   -18.5870 -18.5795 -18.5752 -18.5616 -18.5556 -18.5513 -18.5503 -18.5351
     2.5747   3.5317   3.6670   3.6817   4.2818   4.5330   4.8293   4.9270
     5.0292   5.0988   5.1262   5.1296   5.1915   5.2448   5.3172   5.3339
     7.8688   8.8929   8.9976   9.1943   9.3067   9.4299   9.5440   9.8606
    10.0177  10.0951  10.2705  10.3253  10.3474  10.6430  10.7373  10.7427
    11.0733  11.1142  11.1997  11.3345  11.5043  11.5098  11.5759  11.9485
    12.1208  12.1386  12.2645  12.3535  12.4865  12.5681  12.5754  12.5905
    12.6601  12.6616  12.7106  12.7355  12.8608  12.9602  13.0234  13.1307
    13.1357  13.1453  13.1474  13.4267  13.6242  13.7099  13.7794  13.9604
    14.0212  14.0589  14.1205  14.2097  14.2868  14.5060  14.5105  14.6275
    14.6916  14.8785  15.0038  15.0105  15.1039  15.1163  15.5499  15.5991
    16.2477  16.3529  16.4224  16.5108  16.7615  16.9036  17.0964  17.2332
    17.2711  17.5599  17.7260  17.7797  17.8624  17.8762  17.9101  17.9160
    18.1244  18.2164  18.3534  18.3842  18.4317  18.5322  18.5766  18.8083
    18.8625  18.8916  18.9265  18.9468  18.9739  19.0490

     occupation numbers 
     1.0000   1.0000   1.0000   1.0000   1.0000   1.0000   1.0000   1.0000
     1.0000   1.0000   1.0000   1.0000   1.0000   1.0000   1.0000   1.0000
     1.0000   1.0000   1.0000   1.0000   1.0000   1.0000   1.0000   1.0000
     1.0000   1.0000   1.0000   1.0000   1.0000   1.0000   1.0000   1.0000
     1.0000   1.0000   1.0000   1.0000   1.0000   1.0000   1.0000   1.0000
     1.0000   1.0000   1.0000   1.0000   1.0000   1.0000   1.0000   1.0000
     1.0000   1.0000   1.0000   1.0000   1.0000   1.0000   1.0000   1.0000
     1.0000   1.0000   1.0000   1.0000   1.0000   1.0000   1.0000   1.0000
     1.0000   1.0000   1.0000   1.0000   1.0000   1.0000   1.0000   1.0000
     1.0000   1.0000   1.0000   1.0000   1.0000   1.0000   1.0000   1.0000
     1.0000   1.0000   1.0000   1.0000   1.0000   1.0000   1.0000   1.0000
     1.0000   1.0000   1.0000   1.0000   1.0000   1.0000   1.0000   1.0000
     1.0000   1.0000   1.0000   1.0000   1.0000   1.0000   1.0000   1.0000
     1.0000   1.0000   1.0000   1.0000   1.0000   1.0000   1.0000   1.0000
     1.0000   1.0000   1.0000   1.0000   1.0000   1.0000   1.0000   1.0000
     1.0000   1.0000   1.0000   1.0000   1.0000   1.0000   1.0000   1.0000
     1.0000   1.0000   1.0000   1.0000   1.0000   1.0000   1.0000   1.0000
     1.0000   1.0000   1.0000   1.0000   1.0000   1.0000   1.0000   1.0001
    -0.0178  -0.0012  -0.0001  -0.0000  -0.0000  -0.0000  -0.0000  -0.0000
    -0.0000  -0.0000  -0.0000  -0.0000  -0.0000  -0.0000  -0.0000  -0.0000
    -0.0000  -0.0000  -0.0000  -0.0000  -0.0000  -0.0000  -0.0000  -0.0000
    -0.0000  -0.0000  -0.0000  -0.0000  -0.0000  -0.0000

          k = 0.0000 0.3333 0.1943 ( 20468 PWs)   bands (ev):

   -52.3417 -52.3178 -52.3145 -52.2066 -52.2031 -52.2011 -52.1969 -52.1931
   -52.1835 -52.1795 -52.1773 -52.1733 -52.1707 -52.1653 -52.1640 -52.1586
   -19.0455 -19.0103 -18.9928 -18.9763 -18.9341 -18.9064 -18.8913 -18.8853
   -18.8786 -18.8658 -18.8644 -18.8483 -18.8364 -18.8074 -18.7971 -18.7931
   -18.7763 -18.7713 -18.7674 -18.7640 -18.7613 -18.7566 -18.7520 -18.7427
   -18.7397 -18.7204 -18.7038 -18.7001 -18.6942 -18.6911 -18.6870 -18.6750
   -18.6664 -18.6393 -18.6361 -18.6234 -18.6176 -18.6057 -18.5944 -18.5884
   -18.5873 -18.5793 -18.5756 -18.5634 -18.5617 -18.5560 -18.5512 -18.5503
     2.6883   3.0738   3.7435   4.0214   4.2581   4.8309   4.8394   4.8572
     4.9298   5.0287   5.0958   5.1288   5.1820   5.1886   5.2455   5.3342
     7.9117   8.9751   9.1869   9.3624   9.4225   9.4867   9.6507   9.7396
     9.8520   9.8727  10.0375  10.0461  10.1209  10.1687  10.8319  10.9879
    10.9974  11.3667  11.4504  11.5042  11.5568  11.6080  11.7431  11.9160
    12.1623  12.2122  12.2437  12.3113  12.4123  12.5514  12.6058  12.6144
    12.6338  12.7118  12.7256  12.8798  12.9764  13.0159  13.0411  13.0852
    13.1164  13.1355  13.1968  13.4462  13.4665  13.5759  13.7626  13.7985
    13.8923  14.0109  14.1107  14.1367  14.2050  14.4911  14.5023  14.6304
    14.8247  14.9143  15.0018  15.0140  15.0735  15.3342  15.4396  15.7612
    16.0464  16.0951  16.4143  16.5368  16.7204  16.8367  17.2960  17.3567
    17.4461  17.6364  17.6999  17.7360  17.7902  17.7916  17.8161  17.8293
    17.8326  17.8651  18.2090  18.4221  18.5894  18.6745  18.7549  18.8400
    18.9421  18.9688  19.0784  19.0969  19.1234  19.2240

     occupation numbers 
     1.0000   1.0000   1.0000   1.0000   1.0000   1.0000   1.0000   1.0000
     1.0000   1.0000   1.0000   1.0000   1.0000   1.0000   1.0000   1.0000
     1.0000   1.0000   1.0000   1.0000   1.0000   1.0000   1.0000   1.0000
     1.0000   1.0000   1.0000   1.0000   1.0000   1.0000   1.0000   1.0000
     1.0000   1.0000   1.0000   1.0000   1.0000   1.0000   1.0000   1.0000
     1.0000   1.0000   1.0000   1.0000   1.0000   1.0000   1.0000   1.0000
     1.0000   1.0000   1.0000   1.0000   1.0000   1.0000   1.0000   1.0000
     1.0000   1.0000   1.0000   1.0000   1.0000   1.0000   1.0000   1.0000
     1.0000   1.0000   1.0000   1.0000   1.0000   1.0000   1.0000   1.0000
     1.0000   1.0000   1.0000   1.0000   1.0000   1.0000   1.0000   1.0000
     1.0000   1.0000   1.0000   1.0000   1.0000   1.0000   1.0000   1.0000
     1.0000   1.0000   1.0000   1.0000   1.0000   1.0000   1.0000   1.0000
     1.0000   1.0000   1.0000   1.0000   1.0000   1.0000   1.0000   1.0000
     1.0000   1.0000   1.0000   1.0000   1.0000   1.0000   1.0000   1.0000
     1.0000   1.0000   1.0000   1.0000   1.0000   1.0000   1.0000   1.0000
     1.0000   1.0000   1.0000   1.0000   1.0000   1.0000   1.0000   1.0000
     1.0000   1.0000   1.0000   1.0000   1.0000   1.0000   1.0000   1.0000
     1.0000   1.0000   1.0000   1.0000   1.0000   1.0000   1.0000   1.0123
     0.3039   0.0813  -0.0001  -0.0000  -0.0000  -0.0000  -0.0000  -0.0000
    -0.0000  -0.0000  -0.0000  -0.0000  -0.0000  -0.0000  -0.0000  -0.0000
    -0.0000  -0.0000  -0.0000  -0.0000  -0.0000  -0.0000  -0.0000  -0.0000
    -0.0000  -0.0000  -0.0000  -0.0000  -0.0000  -0.0000

          k = 0.3333 0.0000 0.0000 ( 20500 PWs)   bands (ev):

   -52.3418 -52.3194 -52.3127 -52.2083 -52.2018 -52.1994 -52.1990 -52.1924
   -52.1840 -52.1808 -52.1759 -52.1728 -52.1700 -52.1666 -52.1627 -52.1594
   -19.0713 -19.0109 -18.9703 -18.9458 -18.9390 -18.9375 -18.9268 -18.9105
   -18.8661 -18.8488 -18.8466 -18.8333 -18.8246 -18.8141 -18.8037 -18.7957
   -18.7922 -18.7694 -18.7588 -18.7498 -18.7479 -18.7462 -18.7298 -18.7219
   -18.7194 -18.7138 -18.7124 -18.7077 -18.6965 -18.6928 -18.6873 -18.6830
   -18.6652 -18.6637 -18.6587 -18.6341 -18.6302 -18.6122 -18.6031 -18.5992
   -18.5949 -18.5823 -18.5767 -18.5722 -18.5551 -18.5437 -18.5335 -18.5332
     2.5708   3.5659   3.6137   3.6881   4.2970   4.5091   4.8488   4.9021
     5.0621   5.0790   5.1239   5.1485   5.1543   5.2934   5.2973   5.3181
     7.9453   8.8663   8.9794   9.1431   9.2442   9.4768   9.5180   9.7861
    10.0877  10.1157  10.2394  10.3073  10.3695  10.6086  10.7135  10.8587
    10.9915  11.2430  11.2484  11.3132  11.5035  11.5396  11.8226  11.9014
    12.0305  12.0937  12.1742  12.4526  12.4914  12.5775  12.5801  12.6164
    12.6626  12.6803  12.6874  12.7374  12.7436  12.9808  13.0327  13.1077
    13.1243  13.1399  13.2356  13.4318  13.6488  13.6956  13.8164  13.9219
    14.0214  14.0283  14.1065  14.2229  14.2809  14.5138  14.5452  14.6037
    14.6670  14.7833  14.9952  14.9992  15.1149  15.1263  15.5736  15.5762
    16.1976  16.3762  16.4345  16.4864  16.8531  16.8737  17.0727  17.2188
    17.2957  17.6252  17.7412  17.8236  17.8300  17.8926  17.8950  17.9318
    18.1629  18.1945  18.3524  18.3867  18.4920  18.5516  18.5781  18.7366
    18.8284  18.8832  18.9342  18.9418  19.0060  19.0196

     occupation numbers 
     1.0000   1.0000   1.0000   1.0000   1.0000   1.0000   1.0000   1.0000
     1.0000   1.0000   1.0000   1.0000   1.0000   1.0000   1.0000   1.0000
     1.0000   1.0000   1.0000   1.0000   1.0000   1.0000   1.0000   1.0000
     1.0000   1.0000   1.0000   1.0000   1.0000   1.0000   1.0000   1.0000
     1.0000   1.0000   1.0000   1.0000   1.0000   1.0000   1.0000   1.0000
     1.0000   1.0000   1.0000   1.0000   1.0000   1.0000   1.0000   1.0000
     1.0000   1.0000   1.0000   1.0000   1.0000   1.0000   1.0000   1.0000
     1.0000   1.0000   1.0000   1.0000   1.0000   1.0000   1.0000   1.0000
     1.0000   1.0000   1.0000   1.0000   1.0000   1.0000   1.0000   1.0000
     1.0000   1.0000   1.0000   1.0000   1.0000   1.0000   1.0000   1.0000
     1.0000   1.0000   1.0000   1.0000   1.0000   1.0000   1.0000   1.0000
     1.0000   1.0000   1.0000   1.0000   1.0000   1.0000   1.0000   1.0000
     1.0000   1.0000   1.0000   1.0000   1.0000   1.0000   1.0000   1.0000
     1.0000   1.0000   1.0000   1.0000   1.0000   1.0000   1.0000   1.0000
     1.0000   1.0000   1.0000   1.0000   1.0000   1.0000   1.0000   1.0000
     1.0000   1.0000   1.0000   1.0000   1.0000   1.0000   1.0000   1.0000
     1.0000   1.0000   1.0000   1.0000   1.0000   1.0000   1.0000   1.0000
     1.0000   1.0000   1.0000   1.0000   1.0000   1.0000   1.0000   1.0000
    -0.0334  -0.0005  -0.0001  -0.0000  -0.0000  -0.0000  -0.0000  -0.0000
    -0.0000  -0.0000  -0.0000  -0.0000  -0.0000  -0.0000  -0.0000  -0.0000
    -0.0000  -0.0000  -0.0000  -0.0000  -0.0000  -0.0000  -0.0000  -0.0000
    -0.0000  -0.0000  -0.0000  -0.0000  -0.0000  -0.0000

          k = 0.3333 0.0000 0.1943 ( 20472 PWs)   bands (ev):

   -52.3418 -52.3194 -52.3127 -52.2082 -52.2019 -52.1994 -52.1990 -52.1925
   -52.1840 -52.1808 -52.1759 -52.1728 -52.1700 -52.1666 -52.1627 -52.1594
   -19.0701 -19.0106 -18.9699 -18.9488 -18.9393 -18.9369 -18.9241 -18.9099
   -18.8642 -18.8476 -18.8463 -18.8347 -18.8253 -18.8155 -18.8036 -18.7951
   -18.7876 -18.7688 -18.7611 -18.7558 -18.7526 -18.7473 -18.7412 -18.7272
   -18.7184 -18.7162 -18.7122 -18.7055 -18.7027 -18.6964 -18.6872 -18.6818
   -18.6653 -18.6578 -18.6431 -18.6291 -18.6185 -18.6036 -18.5995 -18.5962
   -18.5923 -18.5822 -18.5772 -18.5728 -18.5628 -18.5502 -18.5437 -18.5335
     2.6847   3.0725   3.7385   4.0174   4.2545   4.8344   4.8502   4.8544
     4.9075   5.0616   5.0781   5.1413   5.1517   5.1820   5.2940   5.2988
     7.9816   8.9402   9.0795   9.3473   9.4050   9.5471   9.6125   9.7071
     9.8883   9.9226  10.0264  10.0635  10.1015  10.1678  10.8807  10.9666
    11.0998  11.3921  11.4033  11.5166  11.5406  11.6378  11.7097  12.0134
    12.1647  12.1987  12.2088  12.2590  12.5178  12.5973  12.6039  12.6139
    12.6692  12.6976  12.7177  12.8629  13.0114  13.0203  13.0301  13.0829
    13.0848  13.1243  13.1498  13.4322  13.4618  13.5909  13.7705  13.8134
    13.9056  14.0118  14.0841  14.0959  14.2028  14.5246  14.5489  14.6055
    14.7580  14.9336  14.9821  14.9938  15.0952  15.3561  15.4325  15.7318
    16.0458  16.0647  16.4313  16.5172  16.7765  16.8177  17.2571  17.3477
    17.4744  17.6652  17.7103  17.7527  17.7585  17.7893  17.7997  17.8198
    17.8371  17.8656  18.2774  18.4148  18.6330  18.7372  18.7483  18.8264
    18.8877  19.0117  19.0383  19.0511  19.1560  19.1807

     occupation numbers 
     1.0000   1.0000   1.0000   1.0000   1.0000   1.0000   1.0000   1.0000
     1.0000   1.0000   1.0000   1.0000   1.0000   1.0000   1.0000   1.0000
     1.0000   1.0000   1.0000   1.0000   1.0000   1.0000   1.0000   1.0000
     1.0000   1.0000   1.0000   1.0000   1.0000   1.0000   1.0000   1.0000
     1.0000   1.0000   1.0000   1.0000   1.0000   1.0000   1.0000   1.0000
     1.0000   1.0000   1.0000   1.0000   1.0000   1.0000   1.0000   1.0000
     1.0000   1.0000   1.0000   1.0000   1.0000   1.0000   1.0000   1.0000
     1.0000   1.0000   1.0000   1.0000   1.0000   1.0000   1.0000   1.0000
     1.0000   1.0000   1.0000   1.0000   1.0000   1.0000   1.0000   1.0000
     1.0000   1.0000   1.0000   1.0000   1.0000   1.0000   1.0000   1.0000
     1.0000   1.0000   1.0000   1.0000   1.0000   1.0000   1.0000   1.0000
     1.0000   1.0000   1.0000   1.0000   1.0000   1.0000   1.0000   1.0000
     1.0000   1.0000   1.0000   1.0000   1.0000   1.0000   1.0000   1.0000
     1.0000   1.0000   1.0000   1.0000   1.0000   1.0000   1.0000   1.0000
     1.0000   1.0000   1.0000   1.0000   1.0000   1.0000   1.0000   1.0000
     1.0000   1.0000   1.0000   1.0000   1.0000   1.0000   1.0000   1.0000
     1.0000   1.0000   1.0000   1.0000   1.0000   1.0000   1.0000   1.0000
     1.0000   1.0000   1.0000   1.0000   1.0000   1.0000   1.0000   1.0063
     0.3074   0.2071  -0.0001  -0.0000  -0.0000  -0.0000  -0.0000  -0.0000
    -0.0000  -0.0000  -0.0000  -0.0000  -0.0000  -0.0000  -0.0000  -0.0000
    -0.0000  -0.0000  -0.0000  -0.0000  -0.0000  -0.0000  -0.0000  -0.0000
    -0.0000  -0.0000  -0.0000  -0.0000  -0.0000  -0.0000

          k = 0.3333 0.3333 0.0000 ( 20504 PWs)   bands (ev):

   -52.3417 -52.3178 -52.3144 -52.2063 -52.2022 -52.2009 -52.1984 -52.1931
   -52.1820 -52.1789 -52.1780 -52.1748 -52.1690 -52.1657 -52.1637 -52.1603
   -19.0445 -18.9743 -18.9623 -18.9461 -18.9212 -18.8867 -18.8750 -18.8708
   -18.8594 -18.8562 -18.8495 -18.8301 -18.8220 -18.8197 -18.8117 -18.8040
   -18.7905 -18.7691 -18.7611 -18.7605 -18.7526 -18.7504 -18.7408 -18.7381
   -18.7321 -18.7305 -18.7125 -18.7068 -18.7043 -18.6966 -18.6875 -18.6775
   -18.6758 -18.6626 -18.6440 -18.6357 -18.6340 -18.6284 -18.6226 -18.6176
   -18.6069 -18.5953 -18.5938 -18.5853 -18.5697 -18.5509 -18.5460 -18.5324
     2.9472   3.8252   3.9229   3.9467   3.9592   4.5032   4.5250   4.5653
     4.6573   4.6674   4.9694   4.9802   5.2400   5.3759   5.3778   5.4351
     8.2774   9.4076   9.5406   9.5871   9.6788   9.7494   9.9407  10.1306
    10.1765  10.2715  10.4535  10.5516  10.6211  10.7461  10.9002  11.0332
    11.0940  11.1184  11.1875  11.3349  11.3645  11.4345  11.5471  11.6050
    11.6666  11.7019  11.8413  11.9260  11.9501  12.0928  12.1396  12.1547
    12.2118  12.5830  12.6217  12.6720  12.7454  12.7543  12.8172  12.9000
    12.9495  12.9946  13.0076  13.0398  13.0588  13.1605  13.8106  13.8181
    13.9298  14.3781  14.4492  14.6258  14.6487  14.6595  14.6724  14.6738
    14.7803  14.8469  14.9449  14.9809  15.0191  15.1413  15.2327  15.2640
    16.1035  16.1402  16.2332  16.2973  16.9256  17.1121  17.1304  17.4105
    17.4419  17.7685  17.8127  17.8515  17.8772  17.9186  17.9328  18.0583
    18.0941  18.1015  18.1242  18.1410  18.1603  18.1727  18.1813  18.1976
    18.7598  18.8148  19.0438  19.0873  19.1039  19.1314

     occupation numbers 
     1.0000   1.0000   1.0000   1.0000   1.0000   1.0000   1.0000   1.0000
     1.0000   1.0000   1.0000   1.0000   1.0000   1.0000   1.0000   1.0000
     1.0000   1.0000   1.0000   1.0000   1.0000   1.0000   1.0000   1.0000
     1.0000   1.0000   1.0000   1.0000   1.0000   1.0000   1.0000   1.0000
     1.0000   1.0000   1.0000   1.0000   1.0000   1.0000   1.0000   1.0000
     1.0000   1.0000   1.0000   1.0000   1.0000   1.0000   1.0000   1.0000
     1.0000   1.0000   1.0000   1.0000   1.0000   1.0000   1.0000   1.0000
     1.0000   1.0000   1.0000   1.0000   1.0000   1.0000   1.0000   1.0000
     1.0000   1.0000   1.0000   1.0000   1.0000   1.0000   1.0000   1.0000
     1.0000   1.0000   1.0000   1.0000   1.0000   1.0000   1.0000   1.0000
     1.0000   1.0000   1.0000   1.0000   1.0000   1.0000   1.0000   1.0000
     1.0000   1.0000   1.0000   1.0000   1.0000   1.0000   1.0000   1.0000
     1.0000   1.0000   1.0000   1.0000   1.0000   1.0000   1.0000   1.0000
     1.0000   1.0000   1.0000   1.0000   1.0000   1.0000   1.0000   1.0000
     1.0000   1.0000   1.0000   1.0000   1.0000   1.0000   1.0000   1.0000
     1.0000   1.0000   1.0000   1.0000   1.0000   1.0000   1.0000   1.0000
     1.0000   1.0000   1.0000   1.0000   1.0000   1.0000   1.0000   1.0000
     1.0000   1.0000   1.0000   1.0000   1.0000   1.0000   1.0000   1.0000
     0.0553  -0.0160  -0.0225  -0.0061  -0.0000  -0.0000  -0.0000  -0.0000
    -0.0000  -0.0000  -0.0000  -0.0000  -0.0000  -0.0000  -0.0000  -0.0000
    -0.0000  -0.0000  -0.0000  -0.0000  -0.0000  -0.0000  -0.0000  -0.0000
    -0.0000  -0.0000  -0.0000  -0.0000  -0.0000  -0.0000

          k = 0.3333 0.3333 0.1943 ( 20490 PWs)   bands (ev):

   -52.3417 -52.3177 -52.3144 -52.2063 -52.2022 -52.2009 -52.1984 -52.1932
   -52.1820 -52.1788 -52.1780 -52.1748 -52.1690 -52.1657 -52.1637 -52.1603
   -19.0432 -18.9740 -18.9620 -18.9461 -18.9232 -18.8863 -18.8735 -18.8705
   -18.8596 -18.8549 -18.8475 -18.8325 -18.8226 -18.8194 -18.8104 -18.8002
   -18.7886 -18.7713 -18.7626 -18.7599 -18.7568 -18.7529 -18.7410 -18.7389
   -18.7343 -18.7306 -18.7222 -18.7095 -18.7064 -18.7009 -18.6926 -18.6851
   -18.6700 -18.6587 -18.6455 -18.6352 -18.6302 -18.6195 -18.6111 -18.6045
   -18.5996 -18.5912 -18.5851 -18.5816 -18.5723 -18.5584 -18.5558 -18.5468
     3.0507   3.4104   3.9695   4.0325   4.2455   4.2665   4.4826   4.6104
     4.7775   4.9563   4.9636   5.0112   5.1911   5.2601   5.2634   5.3735
     8.2971   9.6502   9.6686   9.6988   9.7476   9.8103   9.9109  10.0399
    10.1068  10.1562  10.2335  10.2712  10.2894  10.3499  10.9269  11.1009
    11.2515  11.3504  11.3924  11.4103  11.4348  11.5779  11.7016  11.7281
    11.8277  11.8744  11.8952  11.9181  11.9342  11.9569  12.0010  12.0988
    12.2589  12.3602  12.5641  12.6729  12.6885  12.7388  12.8043  12.8773
    12.9686  12.9860  13.0337  13.2009  13.2290  13.2928  13.5665  13.5830
    13.6365  14.4041  14.4603  14.5499  14.5727  14.6417  14.6789  14.7509
    14.8427  14.8727  14.9996  15.0290  15.0850  15.1262  15.1854  15.1954
    16.4128  16.4694  16.4858  16.5001  17.0121  17.0269  17.0638  17.1149
    17.1219  17.1500  17.1698  17.4404  17.4864  17.6134  17.9318  17.9938
    18.2332  18.3050  18.3323  18.3571  18.4060  18.4183  18.4523  18.7002
    18.9434  19.1051  19.1551  19.1756  19.2022  19.2294

     occupation numbers 
     1.0000   1.0000   1.0000   1.0000   1.0000   1.0000   1.0000   1.0000
     1.0000   1.0000   1.0000   1.0000   1.0000   1.0000   1.0000   1.0000
     1.0000   1.0000   1.0000   1.0000   1.0000   1.0000   1.0000   1.0000
     1.0000   1.0000   1.0000   1.0000   1.0000   1.0000   1.0000   1.0000
     1.0000   1.0000   1.0000   1.0000   1.0000   1.0000   1.0000   1.0000
     1.0000   1.0000   1.0000   1.0000   1.0000   1.0000   1.0000   1.0000
     1.0000   1.0000   1.0000   1.0000   1.0000   1.0000   1.0000   1.0000
     1.0000   1.0000   1.0000   1.0000   1.0000   1.0000   1.0000   1.0000
     1.0000   1.0000   1.0000   1.0000   1.0000   1.0000   1.0000   1.0000
     1.0000   1.0000   1.0000   1.0000   1.0000   1.0000   1.0000   1.0000
     1.0000   1.0000   1.0000   1.0000   1.0000   1.0000   1.0000   1.0000
     1.0000   1.0000   1.0000   1.0000   1.0000   1.0000   1.0000   1.0000
     1.0000   1.0000   1.0000   1.0000   1.0000   1.0000   1.0000   1.0000
     1.0000   1.0000   1.0000   1.0000   1.0000   1.0000   1.0000   1.0000
     1.0000   1.0000   1.0000   1.0000   1.0000   1.0000   1.0000   1.0000
     1.0000   1.0000   1.0000   1.0000   1.0000   1.0000   1.0000   1.0000
     1.0000   1.0000   1.0000   1.0000   1.0000   1.0000   1.0000   1.0000
     1.0000   1.0000   1.0000   1.0000   1.0000   1.0000   1.0000   1.0000
    -0.0001  -0.0000  -0.0000  -0.0000  -0.0000  -0.0000  -0.0000  -0.0000
    -0.0000  -0.0000  -0.0000  -0.0000  -0.0000  -0.0000  -0.0000  -0.0000
    -0.0000  -0.0000  -0.0000  -0.0000  -0.0000  -0.0000  -0.0000  -0.0000
    -0.0000  -0.0000  -0.0000  -0.0000  -0.0000  -0.0000

     the Fermi energy is    16.0139 ev

!    total energy              =   -2498.22212683 Ry
     estimated scf accuracy    <       0.00000352 Ry
     smearing contrib. (-TS)   =      -0.00086065 Ry
     internal energy E=F+TS    =   -2498.22126618 Ry

     The total energy is F=E-TS. E is the sum of the following terms:
     one-electron contribution =    -313.65310241 Ry
     hartree contribution      =     297.52175230 Ry
     xc contribution           =    -749.24352424 Ry
     ewald contribution        =   -1732.84639183 Ry

     convergence has been achieved in  11 iterations

     negative rho (up, down):  1.605E+00 0.000E+00

     Forces acting on atoms (cartesian axes, Ry/au):

     atom    1 type  1   force =     0.00000000    0.00000000   -0.00627920
     atom    2 type  2   force =     0.00000000    0.00000000    0.00142292
     atom    3 type  2   force =     0.00000000    0.00000000    0.00157769
     atom    4 type  2   force =     0.00000000    0.00000000    0.00046878
     atom    5 type  2   force =     0.00000000    0.00000000    0.00133261
     atom    6 type  2   force =     0.01344975    0.01357593   -0.00739798
     atom    7 type  2   force =     0.01344975   -0.01357593   -0.00739798
     atom    8 type  2   force =    -0.01344975    0.01357593   -0.00739798
     atom    9 type  2   force =    -0.01344975   -0.01357593   -0.00739798
     atom   10 type  2   force =     0.01187721    0.00000000    0.01707222
     atom   11 type  2   force =     0.00280441    0.00000000    0.00293930
     atom   12 type  2   force =    -0.01187721    0.00000000    0.01707222
     atom   13 type  2   force =    -0.00280441    0.00000000    0.00293930
     atom   14 type  2   force =     0.00000000    0.00293474   -0.00148298
     atom   15 type  2   force =     0.00000000   -0.00293474   -0.00148298
     atom   16 type  2   force =     0.00000000   -0.00029296    0.00053675
     atom   17 type  2   force =     0.00000000    0.00029296    0.00053675
     atom   18 type  3   force =     0.00000000    0.00000000   -0.01628246
     atom   19 type  3   force =     0.00000000    0.00000000    0.00012606
     atom   20 type  3   force =     0.00000000    0.00000000    0.00043077
     atom   21 type  3   force =     0.00000000    0.00000000   -0.00034556
     atom   22 type  3   force =    -0.00034706    0.00079058   -0.00079630
     atom   23 type  3   force =    -0.00034706   -0.00079058   -0.00079630
     atom   24 type  3   force =     0.00034706    0.00079058   -0.00079630
     atom   25 type  3   force =     0.00034706   -0.00079058   -0.00079630
     atom   26 type  3   force =     0.00000000    0.01581165    0.00877539
     atom   27 type  3   force =     0.00000000   -0.01581165    0.00877539
     atom   28 type  3   force =     0.00000000   -0.00294736   -0.00514803
     atom   29 type  3   force =     0.00000000    0.00294736   -0.00514803
     atom   30 type  3   force =    -0.00060284    0.00000000    0.00170675
     atom   31 type  3   force =     0.00020674    0.00000000    0.00076335
     atom   32 type  3   force =     0.00060284    0.00000000    0.00170675
     atom   33 type  3   force =    -0.00020674    0.00000000    0.00076335
     The non-local contrib.  to forces
     atom    1 type  1   force =     0.00000000    0.00000000   -0.00186825
     atom    2 type  2   force =     0.00000000    0.00000000    0.00759782
     atom    3 type  2   force =     0.00000000    0.00000000    0.00686599
     atom    4 type  2   force =     0.00000000    0.00000000    0.00642732
     atom    5 type  2   force =     0.00000000    0.00000000    0.00654866
     atom    6 type  2   force =    -0.00481204   -0.00257918    0.00828270
     atom    7 type  2   force =    -0.00481204    0.00257918    0.00828270
     atom    8 type  2   force =     0.00481204   -0.00257918    0.00828270
     atom    9 type  2   force =     0.00481204    0.00257918    0.00828270
     atom   10 type  2   force =    -0.00839235   -0.00000000    0.00285507
     atom   11 type  2   force =    -0.00512896    0.00000000    0.00317452
     atom   12 type  2   force =     0.00839235    0.00000000    0.00285507
     atom   13 type  2   force =     0.00512896   -0.00000000    0.00317452
     atom   14 type  2   force =     0.00000000   -0.00225179    0.00985473
     atom   15 type  2   force =     0.00000000    0.00225179    0.00985473
     atom   16 type  2   force =     0.00000000   -0.00135128    0.00811302
     atom   17 type  2   force =     0.00000000    0.00135128    0.00811302
     atom   18 type  3   force =     0.00000000    0.00000000    0.09851519
     atom   19 type  3   force =     0.00000000    0.00000000    0.00685597
     atom   20 type  3   force =     0.00000000    0.00000000    0.00230891
     atom   21 type  3   force =     0.00000000    0.00000000   -0.00168102
     atom   22 type  3   force =    -0.00286242   -0.00027357   -0.01808390
     atom   23 type  3   force =    -0.00286242    0.00027357   -0.01808390
     atom   24 type  3   force =     0.00286242   -0.00027357   -0.01808390
     atom   25 type  3   force =     0.00286242    0.00027357   -0.01808390
     atom   26 type  3   force =     0.00000000   -0.08044926   -0.06377956
     atom   27 type  3   force =     0.00000000    0.08044926   -0.06377956
     atom   28 type  3   force =     0.00000000   -0.00713733   -0.01860014
     atom   29 type  3   force =     0.00000000    0.00713733   -0.01860014
     atom   30 type  3   force =    -0.00297926    0.00000000   -0.00251497
     atom   31 type  3   force =    -0.00130972    0.00000000   -0.00603053
     atom   32 type  3   force =     0.00297926    0.00000000   -0.00251497
     atom   33 type  3   force =     0.00130972    0.00000000   -0.00603053
     The ionic contribution  to forces
     atom    1 type  1   force =    -0.00000000   -0.00000000    0.05522205
     atom    2 type  2   force =    -0.00000000    0.00000000    0.00257635
     atom    3 type  2   force =    -0.00000000    0.00000000   -0.01753421
     atom    4 type  2   force =    -0.00000000    0.00000000   -0.01753316
     atom    5 type  2   force =    -0.00000000   -0.00000000   -0.02741283
     atom    6 type  2   force =     0.22489516    0.22490260   -0.26933601
     atom    7 type  2   force =     0.22489516   -0.22490260   -0.26933601
     atom    8 type  2   force =    -0.22489516    0.22490260   -0.26933601
     atom    9 type  2   force =    -0.22489516   -0.22490260   -0.26933601
     atom   10 type  2   force =     0.22394711   -0.00000000    0.27938103
     atom   11 type  2   force =     0.05441016    0.00000000    0.06899841
     atom   12 type  2   force =    -0.22394711   -0.00000000    0.27938103
     atom   13 type  2   force =    -0.05441016    0.00000000    0.06899841
     atom   14 type  2   force =    -0.00000000    0.02949894   -0.23330630
     atom   15 type  2   force =    -0.00000000   -0.02949894   -0.23330630
     atom   16 type  2   force =    -0.00000000    0.01557511   -0.19205239
     atom   17 type  2   force =    -0.00000000   -0.01557511   -0.19205239
     atom   18 type  3   force =    -0.00000000   -0.00000000   -1.97509355
     atom   19 type  3   force =    -0.00000000    0.00000000   -0.39454199
     atom   20 type  3   force =     0.00000000   -0.00000000   -0.39455886
     atom   21 type  3   force =     0.00000000    0.00000000   -0.23655153
     atom   22 type  3   force =     0.05756051    0.05756430    0.42041381
     atom   23 type  3   force =     0.05756051   -0.05756430    0.42041381
     atom   24 type  3   force =    -0.05756051    0.05756430    0.42041381
     atom   25 type  3   force =    -0.05756051   -0.05756430    0.42041381
     atom   26 type  3   force =    -0.00000000    1.51431688    1.11641915
     atom   27 type  3   force =    -0.00000000   -1.51431688    1.11641915
     atom   28 type  3   force =    -0.00000000    0.21004662    0.34025808
     atom   29 type  3   force =    -0.00000000   -0.21004662    0.34025808
     atom   30 type  3   force =     0.03245016    0.00000000   -0.10863779
     atom   31 type  3   force =     0.02149680    0.00000000   -0.07050192
     atom   32 type  3   force =    -0.03245016    0.00000000   -0.10863779
     atom   33 type  3   force =    -0.02149680    0.00000000   -0.07050192
     The local contribution  to forces
     atom    1 type  1   force =     0.00000000    0.00000000   -0.05967140
     atom    2 type  2   force =     0.00000000    0.00000000   -0.00818056
     atom    3 type  2   force =     0.00000000   -0.00000000    0.01307585
     atom    4 type  2   force =    -0.00000000    0.00000000    0.01212201
     atom    5 type  2   force =    -0.00000000    0.00000000    0.02309781
     atom    6 type  2   force =    -0.20683701   -0.20870604    0.25329417
     atom    7 type  2   force =    -0.20683701    0.20870604    0.25329417
     atom    8 type  2   force =     0.20683701   -0.20870604    0.25329417
     atom    9 type  2   force =     0.20683701    0.20870604    0.25329417
     atom   10 type  2   force =    -0.20405379    0.00000000   -0.26417927
     atom   11 type  2   force =    -0.04679852   -0.00000000   -0.06834746
     atom   12 type  2   force =     0.20405379    0.00000000   -0.26417927
     atom   13 type  2   force =     0.04679852    0.00000000   -0.06834746
     atom   14 type  2   force =     0.00000000   -0.02408505    0.22200858
     atom   15 type  2   force =     0.00000000    0.02408505    0.22200858
     atom   16 type  2   force =     0.00000000   -0.01429565    0.18436999
     atom   17 type  2   force =     0.00000000    0.01429565    0.18436999
     atom   18 type  3   force =    -0.00000000   -0.00000000    1.85166197
     atom   19 type  3   force =    -0.00000000    0.00000000    0.38555601
     atom   20 type  3   force =     0.00000000   -0.00000000    0.39132607
     atom   21 type  3   force =    -0.00000000   -0.00000000    0.23606206
     atom   22 type  3   force =    -0.05467071   -0.05667279   -0.39913835
     atom   23 type  3   force =    -0.05467071    0.05667279   -0.39913835
     atom   24 type  3   force =     0.05467071   -0.05667279   -0.39913835
     atom   25 type  3   force =     0.05467071    0.05667279   -0.39913835
     atom   26 type  3   force =     0.00000000   -1.41338314   -1.03794699
     atom   27 type  3   force =    -0.00000000    1.41338314   -1.03794699
     atom   28 type  3   force =     0.00000000   -0.20626876   -0.32447352
     atom   29 type  3   force =     0.00000000    0.20626876   -0.32447352
     atom   30 type  3   force =    -0.02960919    0.00000000    0.11213299
     atom   31 type  3   force =    -0.01966511   -0.00000000    0.07718949
     atom   32 type  3   force =     0.02960919    0.00000000    0.11213299
     atom   33 type  3   force =     0.01966511    0.00000000    0.07718949
     The core correction contribution to forces
     atom    1 type  1   force =     0.00000000    0.00000000    0.00000000
     atom    2 type  2   force =     0.00000000   -0.00000000   -0.00031162
     atom    3 type  2   force =     0.00000000   -0.00000000   -0.00027154
     atom    4 type  2   force =     0.00000000   -0.00000000   -0.00025273
     atom    5 type  2   force =     0.00000000    0.00000000   -0.00024903
     atom    6 type  2   force =     0.00023224    0.00011081   -0.00031904
     atom    7 type  2   force =     0.00023224   -0.00011081   -0.00031904
     atom    8 type  2   force =    -0.00023224    0.00011081   -0.00031904
     atom    9 type  2   force =    -0.00023224   -0.00011081   -0.00031904
     atom   10 type  2   force =     0.00042609    0.00000000   -0.00009211
     atom   11 type  2   force =     0.00023635   -0.00000000   -0.00008615
     atom   12 type  2   force =    -0.00042609    0.00000000   -0.00009211
     atom   13 type  2   force =    -0.00023635   -0.00000000   -0.00008615
     atom   14 type  2   force =     0.00000000    0.00010667   -0.00040289
     atom   15 type  2   force =     0.00000000   -0.00010667   -0.00040289
     atom   16 type  2   force =     0.00000000    0.00006552   -0.00031282
     atom   17 type  2   force =     0.00000000   -0.00006552   -0.00031282
     atom   18 type  3   force =     0.00000000    0.00000000    0.00735320
     atom   19 type  3   force =     0.00000000   -0.00000000    0.00006170
     atom   20 type  3   force =    -0.00000000    0.00000000   -0.00062986
     atom   21 type  3   force =    -0.00000000   -0.00000000   -0.00036762
     atom   22 type  3   force =    -0.00026782   -0.00003302   -0.00157788
     atom   23 type  3   force =    -0.00026782    0.00003302   -0.00157788
     atom   24 type  3   force =     0.00026782   -0.00003302   -0.00157788
     atom   25 type  3   force =     0.00026782    0.00003302   -0.00157788
     atom   26 type  3   force =     0.00000000   -0.00522607   -0.00529979
     atom   27 type  3   force =     0.00000000    0.00522607   -0.00529979
     atom   28 type  3   force =     0.00000000    0.00014410   -0.00137543
     atom   29 type  3   force =     0.00000000   -0.00014410   -0.00137543
     atom   30 type  3   force =    -0.00018673   -0.00000000   -0.00015918
     atom   31 type  3   force =    -0.00003284   -0.00000000   -0.00053412
     atom   32 type  3   force =     0.00018673    0.00000000   -0.00015918
     atom   33 type  3   force =     0.00003284   -0.00000000   -0.00053412
     The Hubbard contrib.    to forces
     atom    1 type  1   force =     0.00000000    0.00000000    0.00000000
     atom    2 type  2   force =     0.00000000    0.00000000    0.00000000
     atom    3 type  2   force =     0.00000000    0.00000000    0.00000000
     atom    4 type  2   force =     0.00000000    0.00000000    0.00000000
     atom    5 type  2   force =     0.00000000    0.00000000    0.00000000
     atom    6 type  2   force =     0.00000000    0.00000000    0.00000000
     atom    7 type  2   force =     0.00000000    0.00000000    0.00000000
     atom    8 type  2   force =     0.00000000    0.00000000    0.00000000
     atom    9 type  2   force =     0.00000000    0.00000000    0.00000000
     atom   10 type  2   force =     0.00000000    0.00000000    0.00000000
     atom   11 type  2   force =     0.00000000    0.00000000    0.00000000
     atom   12 type  2   force =     0.00000000    0.00000000    0.00000000
     atom   13 type  2   force =     0.00000000    0.00000000    0.00000000
     atom   14 type  2   force =     0.00000000    0.00000000    0.00000000
     atom   15 type  2   force =     0.00000000    0.00000000    0.00000000
     atom   16 type  2   force =     0.00000000    0.00000000    0.00000000
     atom   17 type  2   force =     0.00000000    0.00000000    0.00000000
     atom   18 type  3   force =     0.00000000    0.00000000    0.00000000
     atom   19 type  3   force =     0.00000000    0.00000000    0.00000000
     atom   20 type  3   force =     0.00000000    0.00000000    0.00000000
     atom   21 type  3   force =     0.00000000    0.00000000    0.00000000
     atom   22 type  3   force =     0.00000000    0.00000000    0.00000000
     atom   23 type  3   force =     0.00000000    0.00000000    0.00000000
     atom   24 type  3   force =     0.00000000    0.00000000    0.00000000
     atom   25 type  3   force =     0.00000000    0.00000000    0.00000000
     atom   26 type  3   force =     0.00000000    0.00000000    0.00000000
     atom   27 type  3   force =     0.00000000    0.00000000    0.00000000
     atom   28 type  3   force =     0.00000000    0.00000000    0.00000000
     atom   29 type  3   force =     0.00000000    0.00000000    0.00000000
     atom   30 type  3   force =     0.00000000    0.00000000    0.00000000
     atom   31 type  3   force =     0.00000000    0.00000000    0.00000000
     atom   32 type  3   force =     0.00000000    0.00000000    0.00000000
     atom   33 type  3   force =     0.00000000    0.00000000    0.00000000
     The SCF correction term to forces
     atom    1 type  1   force =     0.00000000   -0.00000000    0.00005814
     atom    2 type  2   force =    -0.00000000    0.00000000   -0.00023933
     atom    3 type  2   force =    -0.00000000    0.00000000   -0.00053865
     atom    4 type  2   force =    -0.00000000    0.00000000   -0.00027491
     atom    5 type  2   force =    -0.00000000    0.00000000   -0.00063223
     atom    6 type  2   force =    -0.00002860   -0.00015226    0.00069996
     atom    7 type  2   force =    -0.00002860    0.00015226    0.00069996
     atom    8 type  2   force =     0.00002860   -0.00015226    0.00069996
     atom    9 type  2   force =     0.00002860    0.00015226    0.00069996
     atom   10 type  2   force =    -0.00004985   -0.00000000   -0.00087276
     atom   11 type  2   force =     0.00008538   -0.00000000   -0.00078027
     atom   12 type  2   force =     0.00004985   -0.00000000   -0.00087276
     atom   13 type  2   force =    -0.00008538   -0.00000000   -0.00078027
     atom   14 type  2   force =    -0.00000000   -0.00033402    0.00038265
     atom   15 type  2   force =    -0.00000000    0.00033402    0.00038265
     atom   16 type  2   force =     0.00000000   -0.00028667    0.00043871
     atom   17 type  2   force =     0.00000000    0.00028667    0.00043871
     atom   18 type  3   force =    -0.00000000   -0.00000000    0.00130048
     atom   19 type  3   force =     0.00000000   -0.00000000    0.00221413
     atom   20 type  3   force =     0.00000000   -0.00000000    0.00200426
     atom   21 type  3   force =    -0.00000000    0.00000000    0.00221231
     atom   22 type  3   force =    -0.00010661    0.00020567   -0.00239022
     atom   23 type  3   force =    -0.00010661   -0.00020567   -0.00239022
     atom   24 type  3   force =     0.00010661    0.00020567   -0.00239022
     atom   25 type  3   force =     0.00010661   -0.00020567   -0.00239022
     atom   26 type  3   force =     0.00000000    0.00055325   -0.00059767
     atom   27 type  3   force =     0.00000000   -0.00055325   -0.00059767
     atom   28 type  3   force =     0.00000000    0.00026801   -0.00093726
     atom   29 type  3   force =     0.00000000   -0.00026801   -0.00093726
     atom   30 type  3   force =    -0.00027781    0.00000000    0.00090545
     atom   31 type  3   force =    -0.00028239    0.00000000    0.00066018
     atom   32 type  3   force =     0.00027781    0.00000000    0.00090545
     atom   33 type  3   force =     0.00028239    0.00000000    0.00066018

     Total force =     0.060409     Total SCF correction =     0.007165
     SCF correction compared to forces is large: reduce conv_thr to get better values

     BFGS Geometry Optimization
     Energy error            =      0.0E+00 Ry
     Gradient error          =      1.7E-02 Ry/Bohr

     number of scf cycles    =   1
     number of bfgs steps    =   0

     energy             new  =   -2498.2221268296 Ry

     new trust radius        =       0.0207973251 bohr
     new conv_thr            =       0.0001000000 Ry


ATOMIC_POSITIONS (crystal)
H                0.0000000000        0.0000000000        0.1667314871
P                0.0000000000        0.0000000000        0.5835101121
P                0.0000000000        0.5000000000        0.5835172718
P                0.5000000000        0.0000000000        0.5834659730
P                0.5000000000        0.5000000000        0.5835059347
P                0.2510672567        0.2510772508        0.0831019711
P                0.2510672567        0.7489227492        0.0831019711
P                0.7489327433        0.2510772508        0.0831019711
P                0.7489327433        0.7489227492        0.0831019711
P                0.2509424740        0.0000000000        0.3342364877
P                0.2502225342        0.5000000000        0.3335826902
P                0.7490575260        0.0000000000        0.3342364877
P                0.7497774658        0.5000000000        0.3335826902
P                0.0000000000        0.2502328716        0.8333779159
P                0.0000000000        0.7497671284        0.8333779159
P                0.5000000000        0.2499767536        0.8334713500
P                0.5000000000        0.7500232464        0.8334713500
Ta               0.0000000000        0.0000000000       -0.0003979363
Ta               0.0000000000        0.5000000000        0.0003611319
Ta               0.5000000000        0.0000000000        0.0003752282
Ta               0.5000000000        0.5000000000        0.0003393145
Ta               0.2499724606        0.2500627329        0.5003185819
Ta               0.2499724606        0.7499372671        0.5003185819
Ta               0.7500275394        0.2500627329        0.5003185819
Ta               0.7500275394        0.7499372671        0.5003185819
Ta               0.0000000000        0.2512546554        0.2507578460
Ta               0.0000000000        0.7487453446        0.2507578460
Ta               0.5000000000        0.2497661270        0.2501137402
Ta               0.5000000000        0.7502338730        0.2501137402
Ta               0.2499521637        0.0000000000        0.7504308338
Ta               0.2500164052        0.5000000000        0.7503871916
Ta               0.7500478363        0.0000000000        0.7504308338
Ta               0.7499835948        0.5000000000        0.7503871916



     Writing config-only to output data dir ./out/H-TaP.save/ :
     XML data file
     NEW-OLD atomic charge density approx. for the potential

     negative rho (up, down):  1.603E+00 0.000E+00

     total cpu time spent up to now is      520.1 secs

     Self-consistent Calculation

     iteration #  1     ecut=    50.00 Ry     beta= 0.30
     Davidson diagonalization with overlap

---- Real-time Memory Report at c_bands before calling an iterative solver
           244 MiB given to the printing process from OS
             0 MiB allocation reported by mallinfo(arena+hblkhd)
        194528 MiB available memory on the node where the printing process lives
------------------
     ethr =  1.00E-06,  avg # of iterations =  5.5

     negative rho (up, down):  1.603E+00 0.000E+00

     total cpu time spent up to now is      579.1 secs

     total energy              =   -2498.22465968 Ry
     estimated scf accuracy    <       0.00103581 Ry

     iteration #  2     ecut=    50.00 Ry     beta= 0.30
     Davidson diagonalization with overlap

---- Real-time Memory Report at c_bands before calling an iterative solver
           245 MiB given to the printing process from OS
             0 MiB allocation reported by mallinfo(arena+hblkhd)
        194410 MiB available memory on the node where the printing process lives
------------------
     c_bands:  1 eigenvalues not converged
     ethr =  3.58E-07,  avg # of iterations =  5.9

     negative rho (up, down):  1.603E+00 0.000E+00

     total cpu time spent up to now is      617.2 secs

     total energy              =   -2498.22470072 Ry
     estimated scf accuracy    <       0.00251455 Ry

     iteration #  3     ecut=    50.00 Ry     beta= 0.30
     Davidson diagonalization with overlap

---- Real-time Memory Report at c_bands before calling an iterative solver
           245 MiB given to the printing process from OS
             0 MiB allocation reported by mallinfo(arena+hblkhd)
        194411 MiB available memory on the node where the printing process lives
------------------
     ethr =  3.58E-07,  avg # of iterations =  2.6

     negative rho (up, down):  1.603E+00 0.000E+00

     total cpu time spent up to now is      648.6 secs

     total energy              =   -2498.22490890 Ry
     estimated scf accuracy    <       0.00085382 Ry

     iteration #  4     ecut=    50.00 Ry     beta= 0.30
     Davidson diagonalization with overlap

---- Real-time Memory Report at c_bands before calling an iterative solver
           245 MiB given to the printing process from OS
             0 MiB allocation reported by mallinfo(arena+hblkhd)
        194419 MiB available memory on the node where the printing process lives
------------------
     ethr =  2.95E-07,  avg # of iterations =  1.5

     negative rho (up, down):  1.603E+00 0.000E+00

     total cpu time spent up to now is      676.1 secs

     End of self-consistent calculation

          k = 0.0000 0.0000 0.0000 ( 20433 PWs)   bands (ev):

   -52.3530 -52.3295 -52.3228 -52.2072 -52.1997 -52.1988 -52.1920 -52.1851
   -52.1791 -52.1787 -52.1769 -52.1723 -52.1707 -52.1657 -52.1657 -52.1593
   -19.0731 -19.0217 -19.0153 -18.9867 -18.9613 -18.9359 -18.9311 -18.9130
   -18.9035 -18.8878 -18.8655 -18.8533 -18.8387 -18.8028 -18.7943 -18.7865
   -18.7791 -18.7730 -18.7654 -18.7528 -18.7474 -18.7455 -18.7394 -18.7226
   -18.7133 -18.7091 -18.7057 -18.7009 -18.6941 -18.6931 -18.6831 -18.6718
   -18.6593 -18.6545 -18.6235 -18.6079 -18.6072 -18.6013 -18.5859 -18.5820
   -18.5787 -18.5715 -18.5692 -18.5634 -18.5504 -18.5449 -18.5346 -18.5302
     2.1714   3.2586   3.3045   4.7408   4.7440   4.8034   4.8146   4.9733
     4.9990   5.0416   5.0680   5.0970   5.2024   5.2082   5.2897   5.3010
     7.5506   8.5669   8.5779   8.6066   8.8319   9.4725   9.7150   9.7967
     9.8039  10.1313  10.1704  10.2099  10.2595  10.6241  10.6610  10.7601
    10.7912  10.8216  11.2710  11.4900  11.8331  11.8730  11.8878  12.1441
    12.3184  12.3656  12.3931  12.4121  12.5244  12.5643  12.6159  12.6311
    12.6550  12.8838  12.8867  12.8926  13.0476  13.3197  13.3380  13.3500
    13.3664  13.4020  13.4170  13.4356  13.5374  13.5834  13.5869  13.7067
    13.9471  14.0325  14.0361  14.0418  14.2151  14.2378  14.4308  14.8738
    14.8814  14.9226  14.9474  14.9477  15.6512  15.6642  15.6988  15.7187
    15.7854  15.8699  15.8846  15.9047  16.9213  17.3489  17.3709  17.5528
    17.6061  17.6557  17.6698  17.8687  17.9822  18.2879  18.4098  18.4200
    18.4450  18.5951  18.6455  18.8590  18.9111  18.9263  18.9749  19.0150
    19.1702  19.1723  19.2261  19.2607  19.3375  19.3516

     occupation numbers 
     1.0000   1.0000   1.0000   1.0000   1.0000   1.0000   1.0000   1.0000
     1.0000   1.0000   1.0000   1.0000   1.0000   1.0000   1.0000   1.0000
     1.0000   1.0000   1.0000   1.0000   1.0000   1.0000   1.0000   1.0000
     1.0000   1.0000   1.0000   1.0000   1.0000   1.0000   1.0000   1.0000
     1.0000   1.0000   1.0000   1.0000   1.0000   1.0000   1.0000   1.0000
     1.0000   1.0000   1.0000   1.0000   1.0000   1.0000   1.0000   1.0000
     1.0000   1.0000   1.0000   1.0000   1.0000   1.0000   1.0000   1.0000
     1.0000   1.0000   1.0000   1.0000   1.0000   1.0000   1.0000   1.0000
     1.0000   1.0000   1.0000   1.0000   1.0000   1.0000   1.0000   1.0000
     1.0000   1.0000   1.0000   1.0000   1.0000   1.0000   1.0000   1.0000
     1.0000   1.0000   1.0000   1.0000   1.0000   1.0000   1.0000   1.0000
     1.0000   1.0000   1.0000   1.0000   1.0000   1.0000   1.0000   1.0000
     1.0000   1.0000   1.0000   1.0000   1.0000   1.0000   1.0000   1.0000
     1.0000   1.0000   1.0000   1.0000   1.0000   1.0000   1.0000   1.0000
     1.0000   1.0000   1.0000   1.0000   1.0000   1.0000   1.0000   1.0000
     1.0000   1.0000   1.0000   1.0000   1.0000   1.0000   1.0000   1.0000
     1.0000   1.0000   1.0000   1.0000   1.0000   1.0000   1.0000   1.0000
     1.0000   1.0000   1.0000   1.0000   1.0005   1.0009   1.0026   1.0045
     1.0196   1.0299   1.0187   0.9898  -0.0000  -0.0000  -0.0000  -0.0000
    -0.0000  -0.0000  -0.0000  -0.0000  -0.0000  -0.0000  -0.0000  -0.0000
    -0.0000  -0.0000  -0.0000  -0.0000  -0.0000  -0.0000  -0.0000  -0.0000
    -0.0000  -0.0000  -0.0000  -0.0000  -0.0000  -0.0000

          k = 0.0000 0.0000 0.1943 ( 20536 PWs)   bands (ev):

   -52.3530 -52.3295 -52.3228 -52.2072 -52.1997 -52.1989 -52.1921 -52.1850
   -52.1791 -52.1788 -52.1769 -52.1723 -52.1707 -52.1657 -52.1657 -52.1593
   -19.0716 -19.0214 -19.0150 -18.9867 -18.9639 -18.9345 -18.9309 -18.9109
   -18.9035 -18.8859 -18.8665 -18.8544 -18.8392 -18.8012 -18.7950 -18.7866
   -18.7794 -18.7736 -18.7674 -18.7622 -18.7528 -18.7474 -18.7394 -18.7287
   -18.7196 -18.7113 -18.7049 -18.7013 -18.6932 -18.6844 -18.6832 -18.6718
   -18.6542 -18.6270 -18.6232 -18.6079 -18.6013 -18.5983 -18.5868 -18.5820
   -18.5795 -18.5713 -18.5698 -18.5639 -18.5533 -18.5505 -18.5449 -18.5302
     2.2965   2.7038   3.9881   4.6601   4.7427   4.7467   4.8103   4.8168
     4.9948   5.0339   5.0646   5.0912   5.2025   5.2084   5.2898   5.3012
     7.5922   8.6158   8.6254   8.6579   9.1564   9.4439   9.6226   9.6963
     9.6973  10.0821  10.1071  10.1806  10.2092  10.2181  10.7195  10.7669
    10.8053  10.8311  10.9943  11.9330  11.9624  11.9826  12.0333  12.1924
    12.3242  12.3714  12.4000  12.4193  12.4588  12.5429  12.5950  12.6216
    12.6337  12.9658  12.9688  13.0414  13.1904  13.2055  13.2598  13.3087
    13.3186  13.3191  13.3819  13.3931  13.4999  13.5139  13.5177  13.6788
    13.8506  14.0910  14.1378  14.1552  14.4326  14.4339  14.4491  14.7914
    14.7983  14.8786  14.8851  14.9258  15.5449  15.5733  15.6162  15.6414
    15.8854  15.9692  15.9938  16.0054  16.9714  17.1425  17.3640  17.3997
    17.4586  17.4774  17.5998  17.7982  18.0577  18.2813  18.3888  18.4290
    18.5658  18.7163  18.7316  18.7719  18.7926  18.8728  18.8793  18.8941
    18.9346  19.0294  19.0421  19.2465  19.2631  19.3453

     occupation numbers 
     1.0000   1.0000   1.0000   1.0000   1.0000   1.0000   1.0000   1.0000
     1.0000   1.0000   1.0000   1.0000   1.0000   1.0000   1.0000   1.0000
     1.0000   1.0000   1.0000   1.0000   1.0000   1.0000   1.0000   1.0000
     1.0000   1.0000   1.0000   1.0000   1.0000   1.0000   1.0000   1.0000
     1.0000   1.0000   1.0000   1.0000   1.0000   1.0000   1.0000   1.0000
     1.0000   1.0000   1.0000   1.0000   1.0000   1.0000   1.0000   1.0000
     1.0000   1.0000   1.0000   1.0000   1.0000   1.0000   1.0000   1.0000
     1.0000   1.0000   1.0000   1.0000   1.0000   1.0000   1.0000   1.0000
     1.0000   1.0000   1.0000   1.0000   1.0000   1.0000   1.0000   1.0000
     1.0000   1.0000   1.0000   1.0000   1.0000   1.0000   1.0000   1.0000
     1.0000   1.0000   1.0000   1.0000   1.0000   1.0000   1.0000   1.0000
     1.0000   1.0000   1.0000   1.0000   1.0000   1.0000   1.0000   1.0000
     1.0000   1.0000   1.0000   1.0000   1.0000   1.0000   1.0000   1.0000
[...]
     atom   30 type  3   force =    -0.00186980    0.00000000   -0.00642636
     atom   31 type  3   force =    -0.00310450    0.00000000   -0.00739842
     atom   32 type  3   force =     0.00186980    0.00000000   -0.00642636
     atom   33 type  3   force =     0.00310450   -0.00000000   -0.00739842
     The ionic contribution  to forces
     atom    1 type  1   force =     0.00000000    0.00000000    0.11380187
     atom    2 type  2   force =    -0.00000000   -0.00000000   -0.18547205
     atom    3 type  2   force =    -0.00000000   -0.00000000   -0.14091495
     atom    4 type  2   force =     0.00000000   -0.00000000   -0.15309239
     atom    5 type  2   force =    -0.00000000   -0.00000000   -0.16897869
     atom    6 type  2   force =    -0.02583108    0.01154122   -0.00160811
     atom    7 type  2   force =    -0.02583108   -0.01154122   -0.00160811
     atom    8 type  2   force =     0.02583108    0.01154122   -0.00160811
     atom    9 type  2   force =     0.02583108   -0.01154122   -0.00160811
     atom   10 type  2   force =     0.01613582    0.00000000    0.00247364
     atom   11 type  2   force =     0.11096667   -0.00000000   -0.04044479
     atom   12 type  2   force =    -0.01613582    0.00000000    0.00247364
     atom   13 type  2   force =    -0.11096667   -0.00000000   -0.04044479
     atom   14 type  2   force =     0.00000000    0.01991979   -0.17051189
     atom   15 type  2   force =     0.00000000   -0.01991979   -0.17051189
     atom   16 type  2   force =    -0.00000000   -0.03633263   -0.15913269
     atom   17 type  2   force =    -0.00000000    0.03633263   -0.15913269
     atom   18 type  3   force =     0.00000000   -0.00000000   -0.81468912
     atom   19 type  3   force =     0.00000000   -0.00000000    0.16044574
     atom   20 type  3   force =     0.00000000   -0.00000000    0.19046627
     atom   21 type  3   force =     0.00000000   -0.00000000    0.20269653
     atom   22 type  3   force =     0.00923971   -0.05136598   -0.00250036
     atom   23 type  3   force =     0.00923971    0.05136598   -0.00250036
     atom   24 type  3   force =    -0.00923971   -0.05136598   -0.00250036
     atom   25 type  3   force =    -0.00923971    0.05136598   -0.00250036
     atom   26 type  3   force =     0.00000000    0.83017433    0.74430715
     atom   27 type  3   force =     0.00000000   -0.83017433    0.74430715
     atom   28 type  3   force =    -0.00000000    0.10159646    0.26979747
     atom   29 type  3   force =    -0.00000000   -0.10159646    0.26979747
     atom   30 type  3   force =     0.05430595   -0.00000000   -0.15099796
     atom   31 type  3   force =    -0.03522703    0.00000000   -0.08940560
     atom   32 type  3   force =    -0.05430595   -0.00000000   -0.15099796
     atom   33 type  3   force =     0.03522703   -0.00000000   -0.08940560
     The local contribution  to forces
     atom    1 type  1   force =     0.00000000    0.00000000   -0.11145957
     atom    2 type  2   force =    -0.00000000    0.00000000    0.18106226
     atom    3 type  2   force =    -0.00000000    0.00000000    0.13457150
     atom    4 type  2   force =    -0.00000000    0.00000000    0.14908074
     atom    5 type  2   force =    -0.00000000    0.00000000    0.16473190
     atom    6 type  2   force =     0.04256285    0.00134872   -0.01206526
     atom    7 type  2   force =     0.04256285   -0.00134872   -0.01206526
     atom    8 type  2   force =    -0.04256285    0.00134872   -0.01206526
     atom    9 type  2   force =    -0.04256285   -0.00134872   -0.01206526
     atom   10 type  2   force =     0.00025340    0.00000000    0.00566397
     atom   11 type  2   force =    -0.10690028    0.00000000    0.03830739
     atom   12 type  2   force =    -0.00025340   -0.00000000    0.00566397
     atom   13 type  2   force =     0.10690028    0.00000000    0.03830739
     atom   14 type  2   force =     0.00000000   -0.01594667    0.16255084
     atom   15 type  2   force =     0.00000000    0.01594667    0.16255084
     atom   16 type  2   force =     0.00000000    0.03750239    0.15272325
     atom   17 type  2   force =     0.00000000   -0.03750239    0.15272325
     atom   18 type  3   force =     0.00000000    0.00000000    0.70264932
     atom   19 type  3   force =     0.00000000    0.00000000   -0.16628780
     atom   20 type  3   force =     0.00000000    0.00000000   -0.18832565
     atom   21 type  3   force =     0.00000000    0.00000000   -0.20694600
     atom   22 type  3   force =    -0.00860705    0.05419394    0.02388183
     atom   23 type  3   force =    -0.00860705   -0.05419394    0.02388183
     atom   24 type  3   force =     0.00860705    0.05419394    0.02388183
     atom   25 type  3   force =     0.00860705   -0.05419394    0.02388183
     atom   26 type  3   force =     0.00000000   -0.73845547   -0.67237960
     atom   27 type  3   force =     0.00000000    0.73845547   -0.67237960
     atom   28 type  3   force =     0.00000000   -0.10413799   -0.25869558
     atom   29 type  3   force =     0.00000000    0.10413799   -0.25869558
     atom   30 type  3   force =    -0.05228487    0.00000000    0.15916300
     atom   31 type  3   force =     0.03850982    0.00000000    0.09869733
     atom   32 type  3   force =     0.05228487    0.00000000    0.15916300
     atom   33 type  3   force =    -0.03850982    0.00000000    0.09869733
     The core correction contribution to forces
     atom    1 type  1   force =     0.00000000    0.00000000    0.00000000
     atom    2 type  2   force =     0.00000000    0.00000000   -0.00009339
     atom    3 type  2   force =     0.00000000    0.00000000   -0.00027945
     atom    4 type  2   force =    -0.00000000    0.00000000   -0.00011263
     atom    5 type  2   force =    -0.00000000    0.00000000   -0.00012841
     atom    6 type  2   force =     0.00114060    0.00082792   -0.00071616
     atom    7 type  2   force =     0.00114060   -0.00082792   -0.00071616
     atom    8 type  2   force =    -0.00114060    0.00082792   -0.00071616
     atom    9 type  2   force =    -0.00114060   -0.00082792   -0.00071616
     atom   10 type  2   force =     0.00104675    0.00000000    0.00066294
     atom   11 type  2   force =     0.00006302    0.00000000   -0.00002065
     atom   12 type  2   force =    -0.00104675    0.00000000    0.00066294
     atom   13 type  2   force =    -0.00006302    0.00000000   -0.00002065
     atom   14 type  2   force =     0.00000000    0.00017646   -0.00028197
     atom   15 type  2   force =     0.00000000   -0.00017646   -0.00028197
     atom   16 type  2   force =     0.00000000    0.00008656   -0.00022987
     atom   17 type  2   force =     0.00000000   -0.00008656   -0.00022987
     atom   18 type  3   force =     0.00000000    0.00000000    0.00808471
     atom   19 type  3   force =     0.00000000    0.00000000    0.00005059
     atom   20 type  3   force =    -0.00000000    0.00000000   -0.00072106
     atom   21 type  3   force =    -0.00000000    0.00000000   -0.00008593
     atom   22 type  3   force =    -0.00010193   -0.00023696   -0.00170567
     atom   23 type  3   force =    -0.00010193    0.00023696   -0.00170567
     atom   24 type  3   force =     0.00010193   -0.00023696   -0.00170567
     atom   25 type  3   force =     0.00010193    0.00023696   -0.00170567
     atom   26 type  3   force =     0.00000000   -0.00574168   -0.00576166
     atom   27 type  3   force =     0.00000000    0.00574168   -0.00576166
     atom   28 type  3   force =     0.00000000    0.00060329   -0.00103886
     atom   29 type  3   force =     0.00000000   -0.00060329   -0.00103886
     atom   30 type  3   force =    -0.00012659    0.00000000   -0.00045322
     atom   31 type  3   force =    -0.00018051   -0.00000000   -0.00062204
     atom   32 type  3   force =     0.00012659    0.00000000   -0.00045322
     atom   33 type  3   force =     0.00018051    0.00000000   -0.00062204
     The Hubbard contrib.    to forces
     atom    1 type  1   force =     0.00000000    0.00000000    0.00000000
     atom    2 type  2   force =     0.00000000    0.00000000    0.00000000
     atom    3 type  2   force =     0.00000000    0.00000000    0.00000000
     atom    4 type  2   force =     0.00000000    0.00000000    0.00000000
     atom    5 type  2   force =     0.00000000    0.00000000    0.00000000
     atom    6 type  2   force =     0.00000000    0.00000000    0.00000000
     atom    7 type  2   force =     0.00000000    0.00000000    0.00000000
     atom    8 type  2   force =     0.00000000    0.00000000    0.00000000
     atom    9 type  2   force =     0.00000000    0.00000000    0.00000000
     atom   10 type  2   force =     0.00000000    0.00000000    0.00000000
     atom   11 type  2   force =     0.00000000    0.00000000    0.00000000
     atom   12 type  2   force =     0.00000000    0.00000000    0.00000000
     atom   13 type  2   force =     0.00000000    0.00000000    0.00000000
     atom   14 type  2   force =     0.00000000    0.00000000    0.00000000
     atom   15 type  2   force =     0.00000000    0.00000000    0.00000000
     atom   16 type  2   force =     0.00000000    0.00000000    0.00000000
     atom   17 type  2   force =     0.00000000    0.00000000    0.00000000
     atom   18 type  3   force =     0.00000000    0.00000000    0.00000000
     atom   19 type  3   force =     0.00000000    0.00000000    0.00000000
     atom   20 type  3   force =     0.00000000    0.00000000    0.00000000
     atom   21 type  3   force =     0.00000000    0.00000000    0.00000000
     atom   22 type  3   force =     0.00000000    0.00000000    0.00000000
     atom   23 type  3   force =     0.00000000    0.00000000    0.00000000
     atom   24 type  3   force =     0.00000000    0.00000000    0.00000000
     atom   25 type  3   force =     0.00000000    0.00000000    0.00000000
     atom   26 type  3   force =     0.00000000    0.00000000    0.00000000
     atom   27 type  3   force =     0.00000000    0.00000000    0.00000000
     atom   28 type  3   force =     0.00000000    0.00000000    0.00000000
     atom   29 type  3   force =     0.00000000    0.00000000    0.00000000
     atom   30 type  3   force =     0.00000000    0.00000000    0.00000000
     atom   31 type  3   force =     0.00000000    0.00000000    0.00000000
     atom   32 type  3   force =     0.00000000    0.00000000    0.00000000
     atom   33 type  3   force =     0.00000000    0.00000000    0.00000000
     The SCF correction term to forces
     atom    1 type  1   force =    -0.00000000   -0.00000000    0.00007013
     atom    2 type  2   force =     0.00000000   -0.00000000   -0.00015867
     atom    3 type  2   force =     0.00000000   -0.00000000   -0.00016837
     atom    4 type  2   force =    -0.00000000   -0.00000000   -0.00015900
     atom    5 type  2   force =    -0.00000000   -0.00000000   -0.00016816
     atom    6 type  2   force =    -0.00000756   -0.00001235    0.00012666
     atom    7 type  2   force =    -0.00000756    0.00001235    0.00012666
     atom    8 type  2   force =     0.00000756   -0.00001235    0.00012666
     atom    9 type  2   force =     0.00000756    0.00001235    0.00012666
     atom   10 type  2   force =    -0.00000514   -0.00000000    0.00048915
     atom   11 type  2   force =    -0.00000633   -0.00000000    0.00048664
     atom   12 type  2   force =     0.00000514   -0.00000000    0.00048915
     atom   13 type  2   force =     0.00000633   -0.00000000    0.00048664
     atom   14 type  2   force =     0.00000000   -0.00002016   -0.00045463
     atom   15 type  2   force =     0.00000000    0.00002016   -0.00045463
     atom   16 type  2   force =     0.00000000   -0.00001720   -0.00045808
     atom   17 type  2   force =     0.00000000    0.00001720   -0.00045808
     atom   18 type  3   force =     0.00000000   -0.00000000   -0.00034768
     atom   19 type  3   force =     0.00000000    0.00000000   -0.00032282
     atom   20 type  3   force =     0.00000000   -0.00000000   -0.00035117
     atom   21 type  3   force =     0.00000000    0.00000000   -0.00033428
     atom   22 type  3   force =    -0.00000739   -0.00001601    0.00032115
     atom   23 type  3   force =    -0.00000739    0.00001601    0.00032115
     atom   24 type  3   force =     0.00000739   -0.00001601    0.00032115
     atom   25 type  3   force =     0.00000739    0.00001601    0.00032115
     atom   26 type  3   force =    -0.00000000   -0.00000132    0.00117392
     atom   27 type  3   force =    -0.00000000    0.00000132    0.00117392
     atom   28 type  3   force =    -0.00000000   -0.00000856    0.00117835
     atom   29 type  3   force =    -0.00000000    0.00000856    0.00117835
     atom   30 type  3   force =    -0.00000529   -0.00000000   -0.00117453
     atom   31 type  3   force =    -0.00000105   -0.00000000   -0.00118340
     atom   32 type  3   force =     0.00000529   -0.00000000   -0.00117453
     atom   33 type  3   force =     0.00000105    0.00000000   -0.00118340

     Total force =     0.000412     Total SCF correction =     0.003732
     SCF correction compared to forces is large: reduce conv_thr to get better values
     Message from routine bfgs:
     history already reset at previous step: exiting
     Energy error            =      1.5E-07 Ry
     Gradient error          =      1.1E-04 Ry/Bohr

     bfgs failed after  21 scf cycles and  16 bfgs steps, convergence not achieved
     (criteria: energy <  1.0E-05 Ry, force <  1.0E-04 Ry/Bohr)

     End of BFGS Geometry Optimization

     Final energy             =   -2498.2270633960 Ry

     File ./out/H-TaP.bfgs deleted, as requested
Begin final coordinates

ATOMIC_POSITIONS (crystal)
H                0.0000000000        0.0000000000        0.1651504260
P                0.0000000000        0.0000000000        0.5841086685
P                0.0000000000        0.5000000000        0.5840625013
P                0.5000000000        0.0000000000        0.5841721168
P                0.5000000000        0.5000000000        0.5840059087
P                0.2521790616        0.2533364419        0.0821486873
P                0.2521790616        0.7466635581        0.0821486873
P                0.7478209384        0.2533364419        0.0821486873
P                0.7478209384        0.7466635581        0.0821486873
P                0.2522484439        0.0000000000        0.3360748683
P                0.2519147865        0.5000000000        0.3341764130
P                0.7477515561        0.0000000000        0.3360748683
P                0.7480852135        0.5000000000        0.3341764130
P                0.0000000000        0.2509671983        0.8328758857
P                0.0000000000        0.7490328017        0.8328758857
P                0.5000000000        0.2494695692        0.8330072340
P                0.5000000000        0.7505304308        0.8330072340
Ta               0.0000000000        0.0000000000       -0.0016754767
Ta               0.0000000000        0.5000000000       -0.0001632004
Ta               0.5000000000        0.0000000000        0.0000231181
Ta               0.5000000000        0.5000000000       -0.0012646068
Ta               0.2500589218        0.2505477511        0.5010875170
Ta               0.2500589218        0.7494522489        0.5010875170
Ta               0.7499410782        0.2505477511        0.5010875170
Ta               0.7499410782        0.7494522489        0.5010875170
Ta              -0.0000000000        0.2523956883        0.2512082124
Ta               0.0000000000        0.7476043117        0.2512082124
Ta               0.5000000000        0.2489283164        0.2497710696
Ta               0.5000000000        0.7510716836        0.2497710696
Ta               0.2496508518       -0.0000000000        0.7506821050
Ta               0.2504268284        0.5000000000        0.7504254956
Ta               0.7503491482        0.0000000000        0.7506821050
Ta               0.7495731716        0.5000000000        0.7504254956
End final coordinates



     Writing all to output data dir ./out/H-TaP.save/ :
     XML data file, charge density, pseudopotentials, collected wavefunctions

     init_run     :     17.19s CPU     17.39s WALL (       1 calls)
     electrons    :   3970.19s CPU   3986.85s WALL (      21 calls)
     update_pot   :      0.77s CPU      0.79s WALL (      20 calls)
     forces       :    227.20s CPU    228.43s WALL (      21 calls)

     Called by init_run:
     wfcinit      :     15.33s CPU     15.42s WALL (       1 calls)
     wfcinit:atom :      0.02s CPU      0.02s WALL (       8 calls)
     wfcinit:wfcr :     15.16s CPU     15.24s WALL (       8 calls)
     potinit      :      0.31s CPU      0.31s WALL (       1 calls)
     hinit0       :      0.39s CPU      0.39s WALL (       1 calls)

     Called by electrons:
     c_bands      :   3551.14s CPU   3555.50s WALL (     108 calls)
     sum_band     :    359.77s CPU    366.88s WALL (     108 calls)
     v_of_rho     :      2.97s CPU      3.11s WALL (     116 calls)
     v_h          :      0.21s CPU      0.22s WALL (     116 calls)
     v_xc         :      3.27s CPU      3.42s WALL (     137 calls)
     newd         :     67.82s CPU     73.24s WALL (     116 calls)
     mix_rho      :      0.26s CPU      0.27s WALL (     108 calls)

     Called by c_bands:
     init_us_2    :      7.44s CPU      7.62s WALL (    1904 calls)
     init_us_2:cp :      7.42s CPU      7.61s WALL (    1904 calls)
     cegterg      :   3523.37s CPU   3527.33s WALL (     864 calls)

     Called by sum_band:
     sum_band:wei :      0.28s CPU      0.30s WALL (     108 calls)
     sum_band:loo :    297.51s CPU    298.21s WALL (     108 calls)
     sum_band:buf :      0.82s CPU      0.84s WALL (     864 calls)
     sum_band:ini :      3.24s CPU      3.30s WALL (     864 calls)
     sum_band:cal :    233.43s CPU    233.50s WALL (     864 calls)
     sum_band:bec :      8.16s CPU      8.17s WALL (     864 calls)
     addusdens    :     61.01s CPU     67.38s WALL (     108 calls)
                                        0.00s GPU  (     108 calls)
     addusd:skk   :      0.34s CPU      0.34s WALL (     324 calls)
                                        0.00s GPU  (     324 calls)

     Called by *egterg:
     cdiaghg      :    682.84s CPU    683.02s WALL (    4246 calls)
     cegterg:over :    312.89s CPU    313.09s WALL (    3646 calls)
     cegterg:upda :    137.86s CPU    137.92s WALL (    3646 calls)
     cegterg:last :    345.93s CPU    346.17s WALL (    1688 calls)
     cdiaghg:chol :     16.77s CPU     16.79s WALL (    4246 calls)
     cdiaghg:inve :     15.49s CPU     15.50s WALL (    4246 calls)
     cdiaghg:para :    292.02s CPU    292.11s WALL (    8492 calls)
     h_psi        :   1408.65s CPU   1411.75s WALL (    4518 calls)
     s_psi        :    553.36s CPU    553.58s WALL (    4518 calls)
     g_psi        :      0.82s CPU      0.83s WALL (    3646 calls)

     Called by h_psi:
     h_psi:calbec :    588.93s CPU    589.28s WALL (    4518 calls)
     vloc_psi     :    263.55s CPU    266.06s WALL (    4518 calls)
     add_vuspsi   :    554.66s CPU    554.90s WALL (    4518 calls)

     General routines
     calbec       :   1004.00s CPU   1004.50s WALL (    6054 calls)
     fft          :      2.44s CPU      2.46s WALL (    1730 calls)
     ffts         :      0.40s CPU      0.41s WALL (     224 calls)
     fftw         :    282.73s CPU    285.47s WALL (  907246 calls)
     interpolate  :      0.49s CPU      0.50s WALL (     116 calls)
     davcio       :      0.00s CPU      0.05s WALL (       8 calls)

     Parallel routines

     PWSCF        :      1h10m CPU      1h10m WALL


   This run was terminated on:   0:26:45  20Feb2024            

=------------------------------------------------------------------------------=
   JOB DONE.
=------------------------------------------------------------------------------=
