
     Program PWSCF v.7.2 starts on 31Jul2023 at  4:20:17 

     This program is part of the open-source Quantum ESPRESSO suite
     for quantum simulation of materials; please cite
         "P. Giannozzi et al., J. Phys.:Condens. Matter 21 395502 (2009);
         "P. Giannozzi et al., J. Phys.:Condens. Matter 29 465901 (2017);
         "P. Giannozzi et al., J. Chem. Phys. 152 154105 (2020);
          URL http://www.quantum-espresso.org", 
     in publications or presentations arising from this work. More details at
     http://www.quantum-espresso.org/quote

     Parallel version (MPI), running on    16 processors

     MPI processes distributed on     1 nodes
     197527 MiB available memory on the printing compute node when the environment starts

     Waiting for input...
     Reading input from standard input
Warning: card &CELL ignored
Warning: card   CELL_DOFREE   = 'IBRAV' ignored
Warning: card / ignored

     Current dimensions of program PWSCF are:
     Max number of different atomic species (ntypx) = 10
     Max number of k-points (npk) =  40000
     Max angular momentum in pseudopotentials (lmaxx) =  4
     file P.rel-pbesol-nl-kjpaw_psl.1.0.0.UPF: wavefunction(s)  3S renormalized
     file Ta.rel-pbesol-spfn-kjpaw_psl.1.0.0.UPF: wavefunction(s)  5S 5P 5P 5D 4F 4F renormalized
     Message from routine setup:
     using ibrav=0 with symmetry is DISCOURAGED, use correct ibrav instead

     R & G space division:  proc/nbgrp/npool/nimage =      16
     Subspace diagonalization in iterative solution of the eigenvalue problem:
     a serial algorithm will be used


     Parallelization info
     --------------------
     sticks:   dense  smooth     PW     G-vecs:    dense   smooth      PW
     Min         280     112     38                 6440     1631     324
     Max         281     113     39                 6441     1633     325
     Sum        4481    1797    615               103055    26105    5191

     Using Slab Decomposition



     bravais-lattice index     =            0
     lattice parameter (alat)  =      11.6627  a.u.
     unit-cell volume          =     414.7770 (a.u.)^3
     number of atoms/cell      =            4
     number of atomic types    =            2
     number of electrons       =        64.00
     number of Kohn-Sham states=           76
     kinetic-energy cutoff     =      60.0000  Ry
     charge density cutoff     =     600.0000  Ry
     scf convergence threshold =      1.0E-07
     mixing beta               =       0.7000
     number of iterations used =            8  plain     mixing
     Exchange-correlation= SLA  PW   PSX  PSC
                           (   1   4  10   8   0   0   0)
     Non magnetic calculation with spin-orbit


     celldm(1)=  11.662672  celldm(2)=   0.000000  celldm(3)=   0.000000
     celldm(4)=   0.000000  celldm(5)=   0.000000  celldm(6)=   0.000000

     crystal axes: (cart. coord. in units of alat)
               a(1) = (   0.987863  -0.000504  -0.000000 )  
               a(2) = (   0.698148   0.698902  -0.000000 )  
               a(3) = (  -0.843006  -0.349199   0.378518 )  

     reciprocal axes: (cart. coord. in units 2 pi/alat)
               b(1) = (  1.011770 -1.010679  1.320942 )  
               b(2) = (  0.000730  1.430087  1.320942 )  
               b(3) = (  0.000000  0.000000  2.641885 )  


     PseudoPot. # 1 for P  read from file:
     ../00_pseudos/P.rel-pbesol-nl-kjpaw_psl.1.0.0.UPF
     MD5 check sum: 0c8f2b216c36cccf289ea652844ab0a6
     Pseudo is Projector augmented-wave + core cor, Zval =  5.0
     Generated using &quot;atomic&quot; code by A. Dal Corso  v.6.3
     Shape of augmentation charge: PSQ
     Using radial grid of 1147 points,  6 beta functions with: 
                l(1) =   0
                l(2) =   0
                l(3) =   1
                l(4) =   1
                l(5) =   1
                l(6) =   1
     Q(r) pseudized with 0 coefficients 


     PseudoPot. # 2 for Ta read from file:
     ../00_pseudos/Ta.rel-pbesol-spfn-kjpaw_psl.1.0.0.UPF
     MD5 check sum: f63610af1deacd73d20bcf4851593e09
     Pseudo is Projector augmented-wave + core cor, Zval = 27.0
     Generated using &quot;atomic&quot; code by A. Dal Corso  v.6.3
     Shape of augmentation charge: PSQ
     Using radial grid of 1273 points, 14 beta functions with: 
                l(1) =   0
                l(2) =   0
                l(3) =   1
                l(4) =   1
                l(5) =   1
                l(6) =   1
                l(7) =   2
                l(8) =   2
                l(9) =   2
               l(10) =   2
               l(11) =   3
               l(12) =   3
               l(13) =   3
               l(14) =   3
     Q(r) pseudized with 0 coefficients 


     atomic species   valence    mass     pseudopotential
        P              5.00    30.97300     P ( 1.00)
        Ta            27.00   180.94700     Ta( 1.00)

      2 Sym. Ops. (no inversion) found ( 1 have fractional translation)


                                    s                        frac. trans.

      isym =  1     identity                                     

 cryst.   s( 1) = (     1          0          0      )
                  (     0          1          0      )
                  (     0          0          1      )

 cart.    s( 1) = (  1.0000000  0.0000000  0.0000000 )
                  ( -0.0000000  1.0000000  0.0000000 )
                  (  0.0000000  0.0000000  1.0000000 )


      isym =  2     inv. 180 deg rotation - cart. axis [0,0,1]   

 cryst.   s( 2) = (     1          0          0      )    f =(  0.2500000 )
                  (     0          1          0      )       ( -0.2500000 )
                  (    -1         -1         -1      )       (  0.5000000 )

 cart.    s( 2) = (  1.0000000  0.0000000  0.0000000 )    f =( -0.3490742 )
                  ( -0.0000000  1.0000000  0.0000000 )       ( -0.3494510 )
                  (  0.0000000  0.0000000 -1.0000000 )       (  0.1892588 )


   Cartesian axes

     site n.     atom                  positions (alat units)
         1           Ta  tau(   1) = (   0.7695702   0.5236334   0.1892588  )
         2           Ta  tau(   2) = (   1.2635018   0.5233814   0.0000000  )
         3           P   tau(   3) = (   0.7748165   0.1160992   0.1892589  )
         4           P   tau(   4) = (   0.2808849   0.1163512  -0.0000000  )

   Crystallographic axes

     site n.     atom                  positions (cryst. coord.)
         1           Ta  tau(   1) = (  0.4994026  0.9994027  0.4999999  )
         2           Ta  tau(   2) = (  0.7494028  0.7494029  0.0000001  )
         3           P   tau(   3) = (  0.9165973  0.4165972  0.5000001  )
         4           P   tau(   4) = (  0.1665973  0.1665972 -0.0000001  )

     number of k points=   205  Gaussian smearing, width (Ry)=  0.0100
                       cart. coord. in units 2pi/alat
        k(    1) = (   0.0000000   0.0000000   0.0000000), wk =   0.0013717
        k(    2) = (   0.0000000   0.0000000   0.2935427), wk =   0.0027435
        k(    3) = (   0.0000000   0.0000000   0.5870854), wk =   0.0027435
        k(    4) = (   0.0000000   0.0000000   0.8806282), wk =   0.0027435
        k(    5) = (   0.0000000   0.0000000   1.1741709), wk =   0.0027435
        k(    6) = (   0.0000811   0.1588986   0.1467714), wk =   0.0054870
        k(    7) = (   0.0000811   0.1588986   0.4403141), wk =   0.0054870
        k(    8) = (   0.0000811   0.1588986   0.7338568), wk =   0.0054870
        k(    9) = (   0.0000811   0.1588986   1.0273995), wk =   0.0054870
        k(   10) = (   0.0000811   0.1588986   1.3209423), wk =   0.0027435
        k(   11) = (   0.0001621   0.3177971   0.2935427), wk =   0.0054870
        k(   12) = (   0.0001621   0.3177971   0.5870854), wk =   0.0054870
        k(   13) = (   0.0001621   0.3177971   0.8806282), wk =   0.0054870
        k(   14) = (   0.0001621   0.3177971   1.1741709), wk =   0.0054870
        k(   15) = (   0.0001621   0.3177971   0.0000000), wk =   0.0027435
        k(   16) = (   0.0002432   0.4766957   0.4403141), wk =   0.0054870
        k(   17) = (   0.0002432   0.4766957   0.7338568), wk =   0.0054870
        k(   18) = (   0.0002432   0.4766957   1.0273995), wk =   0.0054870
        k(   19) = (   0.0002432   0.4766957   1.3209423), wk =   0.0027435
        k(   20) = (   0.0002432   0.4766957  -0.1467714), wk =   0.0054870
        k(   21) = (   0.0003242   0.6355942   0.5870855), wk =   0.0054870
        k(   22) = (   0.0003242   0.6355942   0.8806282), wk =   0.0054870
        k(   23) = (   0.0003242   0.6355942   1.1741709), wk =   0.0054870
        k(   24) = (   0.0003242   0.6355942  -0.2935427), wk =   0.0054870
        k(   25) = (   0.0003242   0.6355942   0.0000000), wk =   0.0027435
        k(   26) = (   0.1124189  -0.1122977   0.1467714), wk =   0.0054870
        k(   27) = (   0.1124189  -0.1122977   0.4403141), wk =   0.0054870
        k(   28) = (   0.1124189  -0.1122977   0.7338568), wk =   0.0054870
        k(   29) = (   0.1124189  -0.1122977   1.0273995), wk =   0.0054870
        k(   30) = (   0.1124189  -0.1122977   1.3209423), wk =   0.0027435
        k(   31) = (   0.1125000   0.0466008   0.2935427), wk =   0.0054870
        k(   32) = (   0.1125000   0.0466008   0.5870854), wk =   0.0054870
        k(   33) = (   0.1125000   0.0466008   0.8806282), wk =   0.0054870
        k(   34) = (   0.1125000   0.0466008   1.1741709), wk =   0.0054870
        k(   35) = (   0.1125000   0.0466008   0.0000000), wk =   0.0027435
        k(   36) = (   0.1125810   0.2054994   0.4403141), wk =   0.0054870
        k(   37) = (   0.1125810   0.2054994   0.7338568), wk =   0.0054870
        k(   38) = (   0.1125810   0.2054994   1.0273995), wk =   0.0054870
        k(   39) = (   0.1125810   0.2054994   1.3209423), wk =   0.0027435
        k(   40) = (   0.1125810   0.2054994  -0.1467714), wk =   0.0054870
        k(   41) = (   0.1126621   0.3643980   0.5870854), wk =   0.0054870
        k(   42) = (   0.1126621   0.3643980   0.8806282), wk =   0.0054870
        k(   43) = (   0.1126621   0.3643980   1.1741709), wk =   0.0054870
        k(   44) = (   0.1126621   0.3643980  -0.2935427), wk =   0.0054870
        k(   45) = (   0.1126621   0.3643980   0.0000000), wk =   0.0027435
        k(   46) = (   0.1127432   0.5232965   0.7338568), wk =   0.0054870
        k(   47) = (   0.1127432   0.5232965   1.0273995), wk =   0.0054870
        k(   48) = (   0.1127432   0.5232965   1.3209423), wk =   0.0027435
        k(   49) = (   0.1127432   0.5232965  -0.4403141), wk =   0.0054870
        k(   50) = (   0.1127432   0.5232965  -0.1467714), wk =   0.0054870
        k(   51) = (   0.1120947  -0.7478920  -0.4403141), wk =   0.0054870
        k(   52) = (   0.1120947  -0.7478920  -0.1467714), wk =   0.0054870
        k(   53) = (   0.1120947  -0.7478920   0.7338568), wk =   0.0054870
        k(   54) = (   0.1120947  -0.7478920  -1.6144850), wk =   0.0054870
        k(   55) = (   0.1120947  -0.7478920  -1.3209423), wk =   0.0027435
        k(   56) = (   0.1121757  -0.5889934  -0.2935427), wk =   0.0054870
        k(   57) = (   0.1121757  -0.5889934  -0.0000000), wk =   0.0027435
        k(   58) = (   0.1121757  -0.5889934   0.5870854), wk =   0.0054870
        k(   59) = (   0.1121757  -0.5889934   0.8806282), wk =   0.0054870
        k(   60) = (   0.1121757  -0.5889934  -1.4677136), wk =   0.0054870
        k(   61) = (   0.1122568  -0.4300948  -0.1467714), wk =   0.0054870
        k(   62) = (   0.1122568  -0.4300948   0.4403141), wk =   0.0054870
        k(   63) = (   0.1122568  -0.4300948   0.7338568), wk =   0.0054870
        k(   64) = (   0.1122568  -0.4300948   1.0273995), wk =   0.0054870
        k(   65) = (   0.1122568  -0.4300948  -1.3209423), wk =   0.0027435
        k(   66) = (   0.1123379  -0.2711963  -0.0000000), wk =   0.0027435
        k(   67) = (   0.1123379  -0.2711963   0.2935427), wk =   0.0054870
        k(   68) = (   0.1123379  -0.2711963   0.5870854), wk =   0.0054870
        k(   69) = (   0.1123379  -0.2711963   0.8806282), wk =   0.0054870
        k(   70) = (   0.1123379  -0.2711963   1.1741709), wk =   0.0054870
        k(   71) = (   0.2248379  -0.2245954   0.2935427), wk =   0.0054870
        k(   72) = (   0.2248379  -0.2245954   0.5870854), wk =   0.0054870
        k(   73) = (   0.2248379  -0.2245954   0.8806282), wk =   0.0054870
        k(   74) = (   0.2248379  -0.2245954   1.1741709), wk =   0.0054870
        k(   75) = (   0.2248379  -0.2245954  -0.0000000), wk =   0.0027435
        k(   76) = (   0.2249189  -0.0656969   0.4403141), wk =   0.0054870
        k(   77) = (   0.2249189  -0.0656969   0.7338568), wk =   0.0054870
        k(   78) = (   0.2249189  -0.0656969   1.0273995), wk =   0.0054870
        k(   79) = (   0.2249189  -0.0656969   1.3209423), wk =   0.0027435
        k(   80) = (   0.2249189  -0.0656969  -0.1467714), wk =   0.0054870
        k(   81) = (   0.2250000   0.0932017   0.5870854), wk =   0.0054870
        k(   82) = (   0.2250000   0.0932017   0.8806282), wk =   0.0054870
        k(   83) = (   0.2250000   0.0932017   1.1741709), wk =   0.0054870
        k(   84) = (   0.2250000   0.0932017  -0.2935427), wk =   0.0054870
        k(   85) = (   0.2250000   0.0932017   0.0000000), wk =   0.0027435
        k(   86) = (   0.2250810   0.2521002   0.7338568), wk =   0.0054870
        k(   87) = (   0.2250810   0.2521002   1.0273995), wk =   0.0054870
        k(   88) = (   0.2250810   0.2521002   1.3209423), wk =   0.0027435
        k(   89) = (   0.2250810   0.2521002  -0.4403141), wk =   0.0054870
        k(   90) = (   0.2250810   0.2521002  -0.1467714), wk =   0.0054870
        k(   91) = (   0.2251621   0.4109988   0.8806282), wk =   0.0054870
        k(   92) = (   0.2251621   0.4109988   1.1741709), wk =   0.0054870
        k(   93) = (   0.2251621   0.4109988   2.0547991), wk =   0.0054870
        k(   94) = (   0.2251621   0.4109988  -0.2935427), wk =   0.0054870
        k(   95) = (   0.2251621   0.4109988   0.0000000), wk =   0.0027435
        k(   96) = (   0.2245136  -0.8601897  -0.2935427), wk =   0.0054870
        k(   97) = (   0.2245136  -0.8601897  -0.0000000), wk =   0.0027435
        k(   98) = (   0.2245136  -0.8601897   0.5870854), wk =   0.0054870
        k(   99) = (   0.2245136  -0.8601897   0.8806282), wk =   0.0054870
        k(  100) = (   0.2245136  -0.8601897  -1.4677136), wk =   0.0054870
        k(  101) = (   0.2245947  -0.7012911  -0.1467714), wk =   0.0054870
        k(  102) = (   0.2245947  -0.7012911   0.4403141), wk =   0.0054870
        k(  103) = (   0.2245947  -0.7012911   0.7338568), wk =   0.0054870
        k(  104) = (   0.2245947  -0.7012911   1.0273995), wk =   0.0054870
        k(  105) = (   0.2245947  -0.7012911  -1.3209423), wk =   0.0027435
        k(  106) = (   0.2246757  -0.5423926  -0.0000000), wk =   0.0027435
        k(  107) = (   0.2246757  -0.5423926   0.2935427), wk =   0.0054870
        k(  108) = (   0.2246757  -0.5423926   0.5870854), wk =   0.0054870
        k(  109) = (   0.2246757  -0.5423926   0.8806282), wk =   0.0054870
        k(  110) = (   0.2246757  -0.5423926   1.1741709), wk =   0.0054870
        k(  111) = (   0.2247568  -0.3834940   0.1467714), wk =   0.0054870
        k(  112) = (   0.2247568  -0.3834940   0.4403141), wk =   0.0054870
        k(  113) = (   0.2247568  -0.3834940   0.7338568), wk =   0.0054870
        k(  114) = (   0.2247568  -0.3834940   1.0273995), wk =   0.0054870
        k(  115) = (   0.2247568  -0.3834940   1.3209423), wk =   0.0027435
        k(  116) = (   0.3372568  -0.3368932   0.4403141), wk =   0.0054870
        k(  117) = (   0.3372568  -0.3368932   0.7338568), wk =   0.0054870
        k(  118) = (   0.3372568  -0.3368932   1.0273995), wk =   0.0054870
        k(  119) = (   0.3372568  -0.3368932   1.3209423), wk =   0.0027435
        k(  120) = (   0.3372568  -0.3368932  -0.1467714), wk =   0.0054870
        k(  121) = (   0.3373378  -0.1779946   0.5870854), wk =   0.0054870
        k(  122) = (   0.3373378  -0.1779946   0.8806282), wk =   0.0054870
        k(  123) = (   0.3373378  -0.1779946   1.1741709), wk =   0.0054870
        k(  124) = (   0.3373378  -0.1779946  -0.2935427), wk =   0.0054870
        k(  125) = (   0.3373378  -0.1779946  -0.0000000), wk =   0.0027435
        k(  126) = (   0.3374189  -0.0190960   0.7338568), wk =   0.0054870
        k(  127) = (   0.3374189  -0.0190960   1.0273995), wk =   0.0054870
        k(  128) = (   0.3374189  -0.0190960   1.3209423), wk =   0.0027435
        k(  129) = (   0.3374189  -0.0190960  -0.4403141), wk =   0.0054870
        k(  130) = (   0.3374189  -0.0190960  -0.1467714), wk =   0.0054870
        k(  131) = (   0.3375000   0.1398025   0.8806282), wk =   0.0054870
        k(  132) = (   0.3375000   0.1398025   1.1741709), wk =   0.0054870
        k(  133) = (   0.3375000   0.1398025   2.0547991), wk =   0.0054870
        k(  134) = (   0.3375000   0.1398025  -0.2935427), wk =   0.0054870
        k(  135) = (   0.3375000   0.1398025   0.0000000), wk =   0.0027435
        k(  136) = (   0.3375810   0.2987011   1.0273995), wk =   0.0054870
        k(  137) = (   0.3375810   0.2987011   1.3209423), wk =   0.0027435
        k(  138) = (   0.3375810   0.2987011   1.9080277), wk =   0.0054870
        k(  139) = (   0.3375810   0.2987011   2.2015704), wk =   0.0054870
        k(  140) = (   0.3375810   0.2987011  -0.1467714), wk =   0.0054870
        k(  141) = (   0.3369325  -0.9724874  -0.1467714), wk =   0.0054870
        k(  142) = (   0.3369325  -0.9724874   0.4403141), wk =   0.0054870
        k(  143) = (   0.3369325  -0.9724874   0.7338568), wk =   0.0054870
        k(  144) = (   0.3369325  -0.9724874   1.0273995), wk =   0.0054870
        k(  145) = (   0.3369325  -0.9724874  -1.3209423), wk =   0.0027435
        k(  146) = (   0.3370136  -0.8135889  -0.0000000), wk =   0.0027435
        k(  147) = (   0.3370136  -0.8135889   0.2935427), wk =   0.0054870
        k(  148) = (   0.3370136  -0.8135889   0.5870854), wk =   0.0054870
        k(  149) = (   0.3370136  -0.8135889   0.8806282), wk =   0.0054870
        k(  150) = (   0.3370136  -0.8135889   1.1741709), wk =   0.0054870
        k(  151) = (   0.3370947  -0.6546903   0.1467714), wk =   0.0054870
        k(  152) = (   0.3370947  -0.6546903   0.4403141), wk =   0.0054870
        k(  153) = (   0.3370947  -0.6546903   0.7338568), wk =   0.0054870
        k(  154) = (   0.3370947  -0.6546903   1.0273995), wk =   0.0054870
        k(  155) = (   0.3370947  -0.6546903   1.3209423), wk =   0.0027435
        k(  156) = (   0.3371757  -0.4957917   0.2935427), wk =   0.0054870
        k(  157) = (   0.3371757  -0.4957917   0.5870854), wk =   0.0054870
        k(  158) = (   0.3371757  -0.4957917   0.8806282), wk =   0.0054870
        k(  159) = (   0.3371757  -0.4957917   1.1741709), wk =   0.0054870
        k(  160) = (   0.3371757  -0.4957917  -0.0000000), wk =   0.0027435
        k(  161) = (   0.4496757  -0.4491909   0.5870854), wk =   0.0054870
        k(  162) = (   0.4496757  -0.4491909   0.8806282), wk =   0.0054870
        k(  163) = (   0.4496757  -0.4491909   1.1741709), wk =   0.0054870
        k(  164) = (   0.4496757  -0.4491909  -0.2935427), wk =   0.0054870
        k(  165) = (   0.4496757  -0.4491909  -0.0000000), wk =   0.0027435
        k(  166) = (   0.4497568  -0.2902923   0.7338568), wk =   0.0054870
        k(  167) = (   0.4497568  -0.2902923   1.0273995), wk =   0.0054870
        k(  168) = (   0.4497568  -0.2902923   1.3209423), wk =   0.0027435
        k(  169) = (   0.4497568  -0.2902923  -0.4403141), wk =   0.0054870
        k(  170) = (   0.4497568  -0.2902923  -0.1467714), wk =   0.0054870
        k(  171) = (   0.4498378  -0.1313938   0.8806282), wk =   0.0054870
        k(  172) = (   0.4498378  -0.1313938   1.1741709), wk =   0.0054870
        k(  173) = (   0.4498378  -0.1313938   2.0547991), wk =   0.0054870
        k(  174) = (   0.4498378  -0.1313938  -0.2935427), wk =   0.0054870
        k(  175) = (   0.4498378  -0.1313938  -0.0000000), wk =   0.0027435
        k(  176) = (   0.4499189   0.0275048   1.0273995), wk =   0.0054870
        k(  177) = (   0.4499189   0.0275048   1.3209423), wk =   0.0027435
        k(  178) = (   0.4499189   0.0275048   1.9080277), wk =   0.0054870
        k(  179) = (   0.4499189   0.0275048   2.2015704), wk =   0.0054870
        k(  180) = (   0.4499189   0.0275048  -0.1467714), wk =   0.0054870
        k(  181) = (   0.4499999   0.1864034   1.1741709), wk =   0.0054870
        k(  182) = (   0.4499999   0.1864034   1.7612563), wk =   0.0054870
        k(  183) = (   0.4499999   0.1864034   2.0547991), wk =   0.0054870
        k(  184) = (   0.4499999   0.1864034   2.3483418), wk =   0.0054870
        k(  185) = (   0.4499999   0.1864034   0.0000000), wk =   0.0027435
        k(  186) = (   0.4493515  -1.0847851  -0.0000000), wk =   0.0027435
        k(  187) = (   0.4493515  -1.0847851   0.2935427), wk =   0.0054870
        k(  188) = (   0.4493515  -1.0847851   0.5870854), wk =   0.0054870
        k(  189) = (   0.4493515  -1.0847851   0.8806282), wk =   0.0054870
        k(  190) = (   0.4493515  -1.0847851   1.1741709), wk =   0.0054870
        k(  191) = (   0.4494325  -0.9258866   0.1467714), wk =   0.0054870
        k(  192) = (   0.4494325  -0.9258866   0.4403141), wk =   0.0054870
        k(  193) = (   0.4494325  -0.9258866   0.7338568), wk =   0.0054870
        k(  194) = (   0.4494325  -0.9258866   1.0273995), wk =   0.0054870
        k(  195) = (   0.4494325  -0.9258866   1.3209423), wk =   0.0027435
        k(  196) = (   0.4495136  -0.7669880   0.2935427), wk =   0.0054870
        k(  197) = (   0.4495136  -0.7669880   0.5870854), wk =   0.0054870
        k(  198) = (   0.4495136  -0.7669880   0.8806282), wk =   0.0054870
        k(  199) = (   0.4495136  -0.7669880   1.1741709), wk =   0.0054870
        k(  200) = (   0.4495136  -0.7669880  -0.0000000), wk =   0.0027435
        k(  201) = (   0.4495946  -0.6080895   0.4403141), wk =   0.0054870
        k(  202) = (   0.4495946  -0.6080895   0.7338568), wk =   0.0054870
        k(  203) = (   0.4495946  -0.6080895   1.0273995), wk =   0.0054870
        k(  204) = (   0.4495946  -0.6080895   1.3209423), wk =   0.0027435
        k(  205) = (   0.4495946  -0.6080895  -0.1467714), wk =   0.0054870

                       cryst. coord.
        k(    1) = (   0.0000000   0.0000000   0.0000000), wk =   0.0013717
        k(    2) = (   0.0000000   0.0000000   0.1111111), wk =   0.0027435
        k(    3) = (   0.0000000   0.0000000   0.2222222), wk =   0.0027435
        k(    4) = (   0.0000000   0.0000000   0.3333333), wk =   0.0027435
        k(    5) = (   0.0000000   0.0000000   0.4444444), wk =   0.0027435
        k(    6) = (   0.0000000   0.1111111   0.0000000), wk =   0.0054870
        k(    7) = (   0.0000000   0.1111111   0.1111111), wk =   0.0054870
        k(    8) = (   0.0000000   0.1111111   0.2222222), wk =   0.0054870
        k(    9) = (   0.0000000   0.1111111   0.3333333), wk =   0.0054870
        k(   10) = (   0.0000000   0.1111111   0.4444444), wk =   0.0027435
        k(   11) = (   0.0000000   0.2222222   0.0000000), wk =   0.0054870
        k(   12) = (   0.0000000   0.2222222   0.1111111), wk =   0.0054870
        k(   13) = (   0.0000000   0.2222222   0.2222222), wk =   0.0054870
        k(   14) = (   0.0000000   0.2222222   0.3333333), wk =   0.0054870
        k(   15) = (   0.0000000   0.2222222  -0.1111111), wk =   0.0027435
        k(   16) = (  -0.0000000   0.3333333  -0.0000000), wk =   0.0054870
        k(   17) = (  -0.0000000   0.3333333   0.1111111), wk =   0.0054870
        k(   18) = (  -0.0000000   0.3333333   0.2222222), wk =   0.0054870
        k(   19) = (  -0.0000000   0.3333333   0.3333333), wk =   0.0027435
        k(   20) = (  -0.0000000   0.3333333  -0.2222222), wk =   0.0054870
        k(   21) = (   0.0000000   0.4444444   0.0000000), wk =   0.0054870
        k(   22) = (   0.0000000   0.4444444   0.1111111), wk =   0.0054870
        k(   23) = (   0.0000000   0.4444444   0.2222222), wk =   0.0054870
        k(   24) = (   0.0000000   0.4444444  -0.3333333), wk =   0.0054870
        k(   25) = (   0.0000000   0.4444444  -0.2222222), wk =   0.0027435
        k(   26) = (   0.1111111   0.0000000   0.0000000), wk =   0.0054870
        k(   27) = (   0.1111111   0.0000000   0.1111111), wk =   0.0054870
        k(   28) = (   0.1111111   0.0000000   0.2222222), wk =   0.0054870
        k(   29) = (   0.1111111   0.0000000   0.3333333), wk =   0.0054870
        k(   30) = (   0.1111111   0.0000000   0.4444444), wk =   0.0027435
        k(   31) = (   0.1111111   0.1111111   0.0000000), wk =   0.0054870
        k(   32) = (   0.1111111   0.1111111   0.1111111), wk =   0.0054870
        k(   33) = (   0.1111111   0.1111111   0.2222222), wk =   0.0054870
        k(   34) = (   0.1111111   0.1111111   0.3333333), wk =   0.0054870
        k(   35) = (   0.1111111   0.1111111  -0.1111111), wk =   0.0027435
        k(   36) = (   0.1111111   0.2222222   0.0000000), wk =   0.0054870
        k(   37) = (   0.1111111   0.2222222   0.1111111), wk =   0.0054870
        k(   38) = (   0.1111111   0.2222222   0.2222222), wk =   0.0054870
        k(   39) = (   0.1111111   0.2222222   0.3333333), wk =   0.0027435
        k(   40) = (   0.1111111   0.2222222  -0.2222222), wk =   0.0054870
        k(   41) = (   0.1111111   0.3333333  -0.0000000), wk =   0.0054870
        k(   42) = (   0.1111111   0.3333333   0.1111111), wk =   0.0054870
        k(   43) = (   0.1111111   0.3333333   0.2222222), wk =   0.0054870
        k(   44) = (   0.1111111   0.3333333  -0.3333333), wk =   0.0054870
        k(   45) = (   0.1111111   0.3333333  -0.2222222), wk =   0.0027435
        k(   46) = (   0.1111111   0.4444444   0.0000000), wk =   0.0054870
        k(   47) = (   0.1111111   0.4444444   0.1111111), wk =   0.0054870
        k(   48) = (   0.1111111   0.4444444   0.2222222), wk =   0.0027435
        k(   49) = (   0.1111111   0.4444444  -0.4444444), wk =   0.0054870
        k(   50) = (   0.1111111   0.4444444  -0.3333333), wk =   0.0054870
        k(   51) = (   0.1111111  -0.4444444   0.0000000), wk =   0.0054870
        k(   52) = (   0.1111111  -0.4444444   0.1111111), wk =   0.0054870
        k(   53) = (   0.1111111  -0.4444444   0.4444444), wk =   0.0054870
        k(   54) = (   0.1111111  -0.4444444  -0.4444444), wk =   0.0054870
        k(   55) = (   0.1111111  -0.4444444  -0.3333333), wk =   0.0027435
        k(   56) = (   0.1111111  -0.3333333   0.0000000), wk =   0.0054870
        k(   57) = (   0.1111111  -0.3333333   0.1111111), wk =   0.0027435
        k(   58) = (   0.1111111  -0.3333333   0.3333333), wk =   0.0054870
        k(   59) = (   0.1111111  -0.3333333   0.4444444), wk =   0.0054870
        k(   60) = (   0.1111111  -0.3333333  -0.4444444), wk =   0.0054870
        k(   61) = (   0.1111111  -0.2222222   0.0000000), wk =   0.0054870
        k(   62) = (   0.1111111  -0.2222222   0.2222222), wk =   0.0054870
        k(   63) = (   0.1111111  -0.2222222   0.3333333), wk =   0.0054870
        k(   64) = (   0.1111111  -0.2222222   0.4444444), wk =   0.0054870
        k(   65) = (   0.1111111  -0.2222222  -0.4444444), wk =   0.0027435
        k(   66) = (   0.1111111  -0.1111111  -0.0000000), wk =   0.0027435
        k(   67) = (   0.1111111  -0.1111111   0.1111111), wk =   0.0054870
        k(   68) = (   0.1111111  -0.1111111   0.2222222), wk =   0.0054870
        k(   69) = (   0.1111111  -0.1111111   0.3333333), wk =   0.0054870
        k(   70) = (   0.1111111  -0.1111111   0.4444444), wk =   0.0054870
        k(   71) = (   0.2222222   0.0000000   0.0000000), wk =   0.0054870
        k(   72) = (   0.2222222   0.0000000   0.1111111), wk =   0.0054870
        k(   73) = (   0.2222222   0.0000000   0.2222222), wk =   0.0054870
        k(   74) = (   0.2222222   0.0000000   0.3333333), wk =   0.0054870
        k(   75) = (   0.2222222   0.0000000  -0.1111111), wk =   0.0027435
        k(   76) = (   0.2222222   0.1111111   0.0000000), wk =   0.0054870
        k(   77) = (   0.2222222   0.1111111   0.1111111), wk =   0.0054870
        k(   78) = (   0.2222222   0.1111111   0.2222222), wk =   0.0054870
        k(   79) = (   0.2222222   0.1111111   0.3333333), wk =   0.0027435
        k(   80) = (   0.2222222   0.1111111  -0.2222222), wk =   0.0054870
        k(   81) = (   0.2222222   0.2222222   0.0000000), wk =   0.0054870
        k(   82) = (   0.2222222   0.2222222   0.1111111), wk =   0.0054870
        k(   83) = (   0.2222222   0.2222222   0.2222222), wk =   0.0054870
        k(   84) = (   0.2222222   0.2222222  -0.3333333), wk =   0.0054870
        k(   85) = (   0.2222222   0.2222222  -0.2222222), wk =   0.0027435
        k(   86) = (   0.2222222   0.3333333   0.0000000), wk =   0.0054870
        k(   87) = (   0.2222222   0.3333333   0.1111111), wk =   0.0054870
        k(   88) = (   0.2222222   0.3333333   0.2222222), wk =   0.0027435
        k(   89) = (   0.2222222   0.3333333  -0.4444444), wk =   0.0054870
        k(   90) = (   0.2222222   0.3333333  -0.3333333), wk =   0.0054870
        k(   91) = (   0.2222222   0.4444444   0.0000000), wk =   0.0054870
        k(   92) = (   0.2222222   0.4444444   0.1111111), wk =   0.0054870
        k(   93) = (   0.2222222   0.4444444   0.4444444), wk =   0.0054870
        k(   94) = (   0.2222222   0.4444444  -0.4444444), wk =   0.0054870
        k(   95) = (   0.2222222   0.4444444  -0.3333333), wk =   0.0027435
        k(   96) = (   0.2222222  -0.4444444   0.0000000), wk =   0.0054870
        k(   97) = (   0.2222222  -0.4444444   0.1111111), wk =   0.0027435
        k(   98) = (   0.2222222  -0.4444444   0.3333333), wk =   0.0054870
        k(   99) = (   0.2222222  -0.4444444   0.4444444), wk =   0.0054870
        k(  100) = (   0.2222222  -0.4444444  -0.4444444), wk =   0.0054870
        k(  101) = (   0.2222222  -0.3333333  -0.0000000), wk =   0.0054870
        k(  102) = (   0.2222222  -0.3333333   0.2222222), wk =   0.0054870
        k(  103) = (   0.2222222  -0.3333333   0.3333333), wk =   0.0054870
        k(  104) = (   0.2222222  -0.3333333   0.4444444), wk =   0.0054870
        k(  105) = (   0.2222222  -0.3333333  -0.4444444), wk =   0.0027435
        k(  106) = (   0.2222222  -0.2222222   0.0000000), wk =   0.0027435
        k(  107) = (   0.2222222  -0.2222222   0.1111111), wk =   0.0054870
        k(  108) = (   0.2222222  -0.2222222   0.2222222), wk =   0.0054870
        k(  109) = (   0.2222222  -0.2222222   0.3333333), wk =   0.0054870
        k(  110) = (   0.2222222  -0.2222222   0.4444444), wk =   0.0054870
        k(  111) = (   0.2222222  -0.1111111   0.0000000), wk =   0.0054870
        k(  112) = (   0.2222222  -0.1111111   0.1111111), wk =   0.0054870
        k(  113) = (   0.2222222  -0.1111111   0.2222222), wk =   0.0054870
        k(  114) = (   0.2222222  -0.1111111   0.3333333), wk =   0.0054870
        k(  115) = (   0.2222222  -0.1111111   0.4444444), wk =   0.0027435
        k(  116) = (   0.3333333   0.0000000  -0.0000000), wk =   0.0054870
        k(  117) = (   0.3333333   0.0000000   0.1111111), wk =   0.0054870
        k(  118) = (   0.3333333   0.0000000   0.2222222), wk =   0.0054870
        k(  119) = (   0.3333333   0.0000000   0.3333333), wk =   0.0027435
        k(  120) = (   0.3333333   0.0000000  -0.2222222), wk =   0.0054870
        k(  121) = (   0.3333333   0.1111111   0.0000000), wk =   0.0054870
        k(  122) = (   0.3333333   0.1111111   0.1111111), wk =   0.0054870
        k(  123) = (   0.3333333   0.1111111   0.2222222), wk =   0.0054870
        k(  124) = (   0.3333333   0.1111111  -0.3333333), wk =   0.0054870
        k(  125) = (   0.3333333   0.1111111  -0.2222222), wk =   0.0027435
        k(  126) = (   0.3333333   0.2222222   0.0000000), wk =   0.0054870
        k(  127) = (   0.3333333   0.2222222   0.1111111), wk =   0.0054870
        k(  128) = (   0.3333333   0.2222222   0.2222222), wk =   0.0027435
        k(  129) = (   0.3333333   0.2222222  -0.4444444), wk =   0.0054870
        k(  130) = (   0.3333333   0.2222222  -0.3333333), wk =   0.0054870
        k(  131) = (   0.3333333   0.3333333  -0.0000000), wk =   0.0054870
        k(  132) = (   0.3333333   0.3333333   0.1111111), wk =   0.0054870
        k(  133) = (   0.3333333   0.3333333   0.4444444), wk =   0.0054870
        k(  134) = (   0.3333333   0.3333333  -0.4444444), wk =   0.0054870
        k(  135) = (   0.3333333   0.3333333  -0.3333333), wk =   0.0027435
        k(  136) = (   0.3333333   0.4444444   0.0000000), wk =   0.0054870
        k(  137) = (   0.3333333   0.4444444   0.1111111), wk =   0.0027435
        k(  138) = (   0.3333333   0.4444444   0.3333333), wk =   0.0054870
        k(  139) = (   0.3333333   0.4444444   0.4444444), wk =   0.0054870
        k(  140) = (   0.3333333   0.4444444  -0.4444444), wk =   0.0054870
        k(  141) = (   0.3333333  -0.4444444  -0.0000000), wk =   0.0054870
        k(  142) = (   0.3333333  -0.4444444   0.2222222), wk =   0.0054870
        k(  143) = (   0.3333333  -0.4444444   0.3333333), wk =   0.0054870
        k(  144) = (   0.3333333  -0.4444444   0.4444444), wk =   0.0054870
        k(  145) = (   0.3333333  -0.4444444  -0.4444444), wk =   0.0027435
        k(  146) = (   0.3333333  -0.3333333   0.0000000), wk =   0.0027435
        k(  147) = (   0.3333333  -0.3333333   0.1111111), wk =   0.0054870
        k(  148) = (   0.3333333  -0.3333333   0.2222222), wk =   0.0054870
        k(  149) = (   0.3333333  -0.3333333   0.3333333), wk =   0.0054870
        k(  150) = (   0.3333333  -0.3333333   0.4444444), wk =   0.0054870
        k(  151) = (   0.3333333  -0.2222222  -0.0000000), wk =   0.0054870
        k(  152) = (   0.3333333  -0.2222222   0.1111111), wk =   0.0054870
        k(  153) = (   0.3333333  -0.2222222   0.2222222), wk =   0.0054870
        k(  154) = (   0.3333333  -0.2222222   0.3333333), wk =   0.0054870
        k(  155) = (   0.3333333  -0.2222222   0.4444444), wk =   0.0027435
        k(  156) = (   0.3333333  -0.1111111   0.0000000), wk =   0.0054870
        k(  157) = (   0.3333333  -0.1111111   0.1111111), wk =   0.0054870
        k(  158) = (   0.3333333  -0.1111111   0.2222222), wk =   0.0054870
        k(  159) = (   0.3333333  -0.1111111   0.3333333), wk =   0.0054870
        k(  160) = (   0.3333333  -0.1111111  -0.1111111), wk =   0.0027435
        k(  161) = (   0.4444444   0.0000000   0.0000000), wk =   0.0054870
        k(  162) = (   0.4444444   0.0000000   0.1111111), wk =   0.0054870
        k(  163) = (   0.4444444   0.0000000   0.2222222), wk =   0.0054870
        k(  164) = (   0.4444444   0.0000000  -0.3333333), wk =   0.0054870
        k(  165) = (   0.4444444   0.0000000  -0.2222222), wk =   0.0027435
        k(  166) = (   0.4444444   0.1111111   0.0000000), wk =   0.0054870
        k(  167) = (   0.4444444   0.1111111   0.1111111), wk =   0.0054870
        k(  168) = (   0.4444444   0.1111111   0.2222222), wk =   0.0027435
        k(  169) = (   0.4444444   0.1111111  -0.4444444), wk =   0.0054870
        k(  170) = (   0.4444444   0.1111111  -0.3333333), wk =   0.0054870
        k(  171) = (   0.4444444   0.2222222   0.0000000), wk =   0.0054870
        k(  172) = (   0.4444444   0.2222222   0.1111111), wk =   0.0054870
        k(  173) = (   0.4444444   0.2222222   0.4444444), wk =   0.0054870
        k(  174) = (   0.4444444   0.2222222  -0.4444444), wk =   0.0054870
        k(  175) = (   0.4444444   0.2222222  -0.3333333), wk =   0.0027435
        k(  176) = (   0.4444444   0.3333333  -0.0000000), wk =   0.0054870
        k(  177) = (   0.4444444   0.3333333   0.1111111), wk =   0.0027435
        k(  178) = (   0.4444444   0.3333333   0.3333333), wk =   0.0054870
        k(  179) = (   0.4444444   0.3333333   0.4444444), wk =   0.0054870
        k(  180) = (   0.4444444   0.3333333  -0.4444444), wk =   0.0054870
        k(  181) = (   0.4444444   0.4444444   0.0000000), wk =   0.0054870
        k(  182) = (   0.4444444   0.4444444   0.2222222), wk =   0.0054870
        k(  183) = (   0.4444444   0.4444444   0.3333333), wk =   0.0054870
        k(  184) = (   0.4444444   0.4444444   0.4444444), wk =   0.0054870
        k(  185) = (   0.4444444   0.4444444  -0.4444444), wk =   0.0027435
        k(  186) = (   0.4444444  -0.4444444   0.0000000), wk =   0.0027435
        k(  187) = (   0.4444444  -0.4444444   0.1111111), wk =   0.0054870
        k(  188) = (   0.4444444  -0.4444444   0.2222222), wk =   0.0054870
        k(  189) = (   0.4444444  -0.4444444   0.3333333), wk =   0.0054870
        k(  190) = (   0.4444444  -0.4444444   0.4444444), wk =   0.0054870
        k(  191) = (   0.4444444  -0.3333333   0.0000000), wk =   0.0054870
        k(  192) = (   0.4444444  -0.3333333   0.1111111), wk =   0.0054870
        k(  193) = (   0.4444444  -0.3333333   0.2222222), wk =   0.0054870
        k(  194) = (   0.4444444  -0.3333333   0.3333333), wk =   0.0054870
        k(  195) = (   0.4444444  -0.3333333   0.4444444), wk =   0.0027435
        k(  196) = (   0.4444444  -0.2222222   0.0000000), wk =   0.0054870
        k(  197) = (   0.4444444  -0.2222222   0.1111111), wk =   0.0054870
        k(  198) = (   0.4444444  -0.2222222   0.2222222), wk =   0.0054870
        k(  199) = (   0.4444444  -0.2222222   0.3333333), wk =   0.0054870
        k(  200) = (   0.4444444  -0.2222222  -0.1111111), wk =   0.0027435
        k(  201) = (   0.4444444  -0.1111111  -0.0000000), wk =   0.0054870
        k(  202) = (   0.4444444  -0.1111111   0.1111111), wk =   0.0054870
        k(  203) = (   0.4444444  -0.1111111   0.2222222), wk =   0.0054870
        k(  204) = (   0.4444444  -0.1111111   0.3333333), wk =   0.0027435
        k(  205) = (   0.4444444  -0.1111111  -0.2222222), wk =   0.0054870

     Dense  grid:   103055 G-vectors     FFT dimensions: (  96,  96,  90)

     Smooth grid:    26105 G-vectors     FFT dimensions: (  60,  60,  60)

     Dynamical RAM for                 wfc:       0.47 MB

     Dynamical RAM for     wfc (w. buffer):      96.99 MB

     Dynamical RAM for           str. fact:       0.20 MB

     Dynamical RAM for           local pot:       0.00 MB

     Dynamical RAM for          nlocal pot:       0.47 MB

     Dynamical RAM for                qrad:      27.51 MB

     Dynamical RAM for          rho,v,vnew:       6.24 MB

     Dynamical RAM for               rhoin:       2.08 MB

     Dynamical RAM for            rho*nmix:       6.29 MB

     Dynamical RAM for           G-vectors:       0.38 MB

     Dynamical RAM for          h,s,v(r/c):       1.06 MB

     Dynamical RAM for          <psi|beta>:       0.35 MB

     Dynamical RAM for                 psi:       0.94 MB

     Dynamical RAM for                hpsi:       0.94 MB

     Dynamical RAM for                spsi:       0.94 MB

     Dynamical RAM for      wfcinit/wfcrot:       0.94 MB

     Dynamical RAM for           addusdens:     194.79 MB

     Estimated static dynamical RAM per process >     137.54 MB

     Estimated max dynamical RAM per process >     338.63 MB

     Estimated total dynamical RAM >       5.29 GB

     Initial potential from superposition of free atoms

     starting charge      63.9982, renormalised to      64.0000
     Starting wfcs are   84 randomized atomic wfcs
     Checking if some PAW data can be deallocated... 
       PAW data deallocated on    8 nodes for type:  1
       PAW data deallocated on    8 nodes for type:  2

     total cpu time spent up to now is       37.5 secs

     Self-consistent Calculation

     iteration #  1     ecut=    60.00 Ry     beta= 0.70
     Davidson diagonalization with overlap

---- Real-time Memory Report at c_bands before calling an iterative solver
           318 MiB given to the printing process from OS
             0 MiB allocation reported by mallinfo(arena+hblkhd)
        194139 MiB available memory on the node where the printing process lives
------------------
     ethr =  1.00E-02,  avg # of iterations =  3.2

     Threshold (ethr) on eigenvalues was too large:
     Diagonalizing with lowered threshold

     Davidson diagonalization with overlap

---- Real-time Memory Report at c_bands before calling an iterative solver
           447 MiB given to the printing process from OS
             0 MiB allocation reported by mallinfo(arena+hblkhd)
        192597 MiB available memory on the node where the printing process lives
------------------
     ethr =  2.46E-04,  avg # of iterations =  5.8

     total cpu time spent up to now is      271.0 secs

     total energy              =   -2557.82626866 Ry
     estimated scf accuracy    <       0.17652378 Ry

     iteration #  2     ecut=    60.00 Ry     beta= 0.70
     Davidson diagonalization with overlap

---- Real-time Memory Report at c_bands before calling an iterative solver
           455 MiB given to the printing process from OS
             0 MiB allocation reported by mallinfo(arena+hblkhd)
        190639 MiB available memory on the node where the printing process lives
------------------
     ethr =  2.76E-04,  avg # of iterations =  3.0

     total cpu time spent up to now is      406.5 secs

     total energy              =   -2557.87038122 Ry
     estimated scf accuracy    <       0.16238484 Ry

     iteration #  3     ecut=    60.00 Ry     beta= 0.70
     Davidson diagonalization with overlap

---- Real-time Memory Report at c_bands before calling an iterative solver
           458 MiB given to the printing process from OS
             0 MiB allocation reported by mallinfo(arena+hblkhd)
        188341 MiB available memory on the node where the printing process lives
------------------
     ethr =  2.54E-04,  avg # of iterations =  2.0

     total cpu time spent up to now is      511.5 secs

     total energy              =   -2557.90796931 Ry
     estimated scf accuracy    <       0.00200983 Ry

     iteration #  4     ecut=    60.00 Ry     beta= 0.70
     Davidson diagonalization with overlap

---- Real-time Memory Report at c_bands before calling an iterative solver
           460 MiB given to the printing process from OS
             0 MiB allocation reported by mallinfo(arena+hblkhd)
        179701 MiB available memory on the node where the printing process lives
------------------
     c_bands:  1 eigenvalues not converged
     ethr =  3.14E-06,  avg # of iterations =  8.0

     total cpu time spent up to now is      679.5 secs

     total energy              =   -2557.90879384 Ry
     estimated scf accuracy    <       0.00061711 Ry

     iteration #  5     ecut=    60.00 Ry     beta= 0.70
     Davidson diagonalization with overlap

---- Real-time Memory Report at c_bands before calling an iterative solver
           461 MiB given to the printing process from OS
             0 MiB allocation reported by mallinfo(arena+hblkhd)
        158881 MiB available memory on the node where the printing process lives
------------------
     ethr =  9.64E-07,  avg # of iterations =  3.2

     total cpu time spent up to now is      803.9 secs

     total energy              =   -2557.90897281 Ry
     estimated scf accuracy    <       0.00018875 Ry

     iteration #  6     ecut=    60.00 Ry     beta= 0.70
     Davidson diagonalization with overlap

---- Real-time Memory Report at c_bands before calling an iterative solver
           462 MiB given to the printing process from OS
             0 MiB allocation reported by mallinfo(arena+hblkhd)
        131498 MiB available memory on the node where the printing process lives
------------------
     ethr =  2.95E-07,  avg # of iterations =  2.0

     total cpu time spent up to now is      908.3 secs

     total energy              =   -2557.90898813 Ry
     estimated scf accuracy    <       0.00001173 Ry

     iteration #  7     ecut=    60.00 Ry     beta= 0.70
     Davidson diagonalization with overlap

---- Real-time Memory Report at c_bands before calling an iterative solver
           463 MiB given to the printing process from OS
             0 MiB allocation reported by mallinfo(arena+hblkhd)
        106845 MiB available memory on the node where the printing process lives
------------------
     ethr =  1.83E-08,  avg # of iterations =  4.2

     total cpu time spent up to now is     1029.4 secs

     total energy              =   -2557.90899285 Ry
     estimated scf accuracy    <       0.00000042 Ry

     iteration #  8     ecut=    60.00 Ry     beta= 0.70
     Davidson diagonalization with overlap

---- Real-time Memory Report at c_bands before calling an iterative solver
           464 MiB given to the printing process from OS
             0 MiB allocation reported by mallinfo(arena+hblkhd)
         90047 MiB available memory on the node where the printing process lives
------------------
     ethr =  6.50E-10,  avg # of iterations =  3.1

     total cpu time spent up to now is     1155.1 secs

     End of self-consistent calculation

          k = 0.0000 0.0000 0.0000 (  3227 PWs)   bands (ev):

   -49.4612 -49.4612 -49.4423 -49.4423 -22.3982 -22.3982 -22.3232 -22.3232
   -13.8515 -13.8515 -13.6413 -13.6413 -13.5941 -13.5941 -13.4982 -13.4982
    -2.3933  -2.3933  -2.3922  -2.3922  -2.3860  -2.3860  -2.3859  -2.3859
    -2.3625  -2.3625  -2.3620  -2.3620  -0.4126  -0.4126  -0.4126  -0.4126
    -0.4089  -0.4089  -0.4085  -0.4085  -0.3969  -0.3969  -0.3957  -0.3957
    -0.3780  -0.3780  -0.3730  -0.3730   4.4759   4.4759   7.4034   7.4034
    11.1620  11.1620  14.8546  14.8546  15.6993  15.6993  15.7561  15.7561
    15.7571  15.7571  16.2900  16.2900  16.6404  16.6404  16.7391  16.7391
    19.3797  19.3797  20.3792  20.3792  20.9774  20.9774  21.6030  21.6030
    21.7303  21.7303  21.8099  21.8099

     occupation numbers 
     1.0000   1.0000   1.0000   1.0000   1.0000   1.0000   1.0000   1.0000
     1.0000   1.0000   1.0000   1.0000   1.0000   1.0000   1.0000   1.0000
     1.0000   1.0000   1.0000   1.0000   1.0000   1.0000   1.0000   1.0000
     1.0000   1.0000   1.0000   1.0000   1.0000   1.0000   1.0000   1.0000
     1.0000   1.0000   1.0000   1.0000   1.0000   1.0000   1.0000   1.0000
     1.0000   1.0000   1.0000   1.0000   1.0000   1.0000   1.0000   1.0000
     1.0000   1.0000   1.0000   1.0000   1.0000   1.0000   1.0000   1.0000
     1.0000   1.0000   1.0000   1.0000   1.0000   1.0000   1.0000   1.0000
     0.0000   0.0000   0.0000   0.0000   0.0000   0.0000   0.0000   0.0000
     0.0000   0.0000   0.0000   0.0000

          k = 0.0000 0.0000 0.2935 (  3251 PWs)   bands (ev):

   -49.4587 -49.4587 -49.4410 -49.4410 -22.4055 -22.4015 -22.3343 -22.3336
   -13.8628 -13.8348 -13.6876 -13.6608 -13.6346 -13.6199 -13.5261 -13.5011
    -2.3933  -2.3932  -2.3925  -2.3925  -2.3868  -2.3864  -2.3855  -2.3855
    -2.3626  -2.3626  -2.3623  -2.3620  -0.4135  -0.4131  -0.4125  -0.4107
    -0.4097  -0.4091  -0.4079  -0.4079  -0.3974  -0.3974  -0.3967  -0.3957
    -0.3786  -0.3772  -0.3734  -0.3731   4.8511   4.8581   7.4790   7.6223
    11.3100  11.3996  14.2894  14.3212  15.2192  15.2488  15.3025  15.3573
    15.3718  15.4194  16.1589  16.2966  16.8539  16.9173  17.0579  17.2114
    18.7422  18.9040  19.3504  19.5394  20.9482  21.0593  21.3692  21.4131
    22.0809  22.0996  22.4819  22.5838

     occupation numbers 
     1.0000   1.0000   1.0000   1.0000   1.0000   1.0000   1.0000   1.0000
     1.0000   1.0000   1.0000   1.0000   1.0000   1.0000   1.0000   1.0000
     1.0000   1.0000   1.0000   1.0000   1.0000   1.0000   1.0000   1.0000
     1.0000   1.0000   1.0000   1.0000   1.0000   1.0000   1.0000   1.0000
     1.0000   1.0000   1.0000   1.0000   1.0000   1.0000   1.0000   1.0000
     1.0000   1.0000   1.0000   1.0000   1.0000   1.0000   1.0000   1.0000
     1.0000   1.0000   1.0000   1.0000   1.0000   1.0000   1.0000   1.0000
     1.0000   1.0000   1.0000   1.0000   1.0000   1.0000   1.0000   1.0000
     0.0000   0.0000   0.0000   0.0000   0.0000   0.0000   0.0000   0.0000
     0.0000   0.0000   0.0000   0.0000

          k = 0.0000 0.0000 0.5871 (  3243 PWs)   bands (ev):

   -49.4522 -49.4522 -49.4379 -49.4379 -22.4191 -22.4127 -22.3621 -22.3603
   -13.8769 -13.8113 -13.7765 -13.7328 -13.7232 -13.6771 -13.5724 -13.5347
    -2.3933  -2.3930  -2.3926  -2.3923  -2.3874  -2.3865  -2.3852  -2.3847
    -2.3626  -2.3625  -2.3622  -2.3620  -0.4136  -0.4130  -0.4126  -0.4101
    -0.4091  -0.4079  -0.4068  -0.4063  -0.3994  -0.3983  -0.3976  -0.3956
    -0.3784  -0.3758  -0.3742  -0.3731   5.8293   5.8570   7.7017   7.8712
    12.0307  12.1486  13.0384  13.0424  13.7779  13.7910  14.6250  14.6291
    14.7385  14.7933  16.2575  16.3151  17.2712  17.3786  17.5625  17.7294
    18.3965  18.4465  19.0201  19.2740  20.4427  20.5517  22.1069  22.1224
    22.6868  22.7355  23.0977  23.2519

     occupation numbers 
     1.0000   1.0000   1.0000   1.0000   1.0000   1.0000   1.0000   1.0000
     1.0000   1.0000   1.0000   1.0000   1.0000   1.0000   1.0000   1.0000
     1.0000   1.0000   1.0000   1.0000   1.0000   1.0000   1.0000   1.0000
     1.0000   1.0000   1.0000   1.0000   1.0000   1.0000   1.0000   1.0000
     1.0000   1.0000   1.0000   1.0000   1.0000   1.0000   1.0000   1.0000
     1.0000   1.0000   1.0000   1.0000   1.0000   1.0000   1.0000   1.0000
     1.0000   1.0000   1.0000   1.0000   1.0000   1.0000   1.0000   1.0000
     1.0000   1.0000   1.0000   1.0000   1.0000   1.0000   1.0000   1.0000
     0.2577   0.1211   0.0000   0.0000   0.0000   0.0000   0.0000   0.0000
     0.0000   0.0000   0.0000   0.0000

          k = 0.0000 0.0000 0.8806 (  3251 PWs)   bands (ev):

   -49.4442 -49.4442 -49.4349 -49.4349 -22.4309 -22.4242 -22.3950 -22.3917
   -13.9100 -13.8681 -13.8193 -13.8144 -13.7738 -13.7019 -13.6274 -13.5848
    -2.3930  -2.3928  -2.3925  -2.3921  -2.3877  -2.3860  -2.3854  -2.3841
    -2.3627  -2.3625  -2.3624  -2.3621  -0.4137  -0.4128  -0.4123  -0.4101
    -0.4087  -0.4055  -0.4055  -0.4043  -0.4017  -0.3990  -0.3990  -0.3964
    -0.3777  -0.3751  -0.3743  -0.3729   6.9192   6.9683   7.7996   7.8728
    12.0608  12.0948  12.3414  12.4367  13.4996  13.8025  14.0517  14.1439
    14.3821  14.4602  15.3619  15.4546  17.0396  17.2746  17.5255  17.6056
    19.3572  19.5590  20.4654  20.6560  20.7600  20.8052  22.3920  22.4569
    22.9770  23.1084  23.2143  23.4459

     occupation numbers 
     1.0000   1.0000   1.0000   1.0000   1.0000   1.0000   1.0000   1.0000
     1.0000   1.0000   1.0000   1.0000   1.0000   1.0000   1.0000   1.0000
     1.0000   1.0000   1.0000   1.0000   1.0000   1.0000   1.0000   1.0000
     1.0000   1.0000   1.0000   1.0000   1.0000   1.0000   1.0000   1.0000
     1.0000   1.0000   1.0000   1.0000   1.0000   1.0000   1.0000   1.0000
     1.0000   1.0000   1.0000   1.0000   1.0000   1.0000   1.0000   1.0000
     1.0000   1.0000   1.0000   1.0000   1.0000   1.0000   1.0000   1.0000
     1.0000   1.0000   1.0000   1.0000   1.0000   1.0000   1.0000   1.0000
     0.0000   0.0000   0.0000   0.0000   0.0000   0.0000   0.0000   0.0000
     0.0000   0.0000   0.0000   0.0000

          k = 0.0000 0.0000 1.1742 (  3246 PWs)   bands (ev):

   -49.4376 -49.4376 -49.4344 -49.4344 -22.4332 -22.4272 -22.4210 -22.4163
   -13.9396 -13.9280 -13.8697 -13.8683 -13.7333 -13.6830 -13.6805 -13.6369
    -2.3926  -2.3924  -2.3923  -2.3920  -2.3870  -2.3860  -2.3850  -2.3842
    -2.3626  -2.3625  -2.3624  -2.3623  -0.4134  -0.4127  -0.4120  -0.4106
    -0.4069  -0.4054  -0.4044  -0.4034  -0.4014  -0.4004  -0.3985  -0.3974
    -0.3768  -0.3759  -0.3732  -0.3727   7.4938   7.5149   7.6957   7.6984
    12.1405  12.3024  12.5178  12.5267  12.9919  13.1312  13.5400  13.6033
    14.8331  14.9384  15.0613  15.0699  17.0103  17.0147  17.5010  17.6952
    21.0556  21.2442  21.4885  21.5395  21.7209  21.8722  22.3838  22.4127
    22.5344  22.6056  22.8833  23.1424

     occupation numbers 
     1.0000   1.0000   1.0000   1.0000   1.0000   1.0000   1.0000   1.0000
     1.0000   1.0000   1.0000   1.0000   1.0000   1.0000   1.0000   1.0000
     1.0000   1.0000   1.0000   1.0000   1.0000   1.0000   1.0000   1.0000
     1.0000   1.0000   1.0000   1.0000   1.0000   1.0000   1.0000   1.0000
     1.0000   1.0000   1.0000   1.0000   1.0000   1.0000   1.0000   1.0000
     1.0000   1.0000   1.0000   1.0000   1.0000   1.0000   1.0000   1.0000
     1.0000   1.0000   1.0000   1.0000   1.0000   1.0000   1.0000   1.0000
     1.0000   1.0000   1.0000   1.0000   1.0000   1.0000   1.0000   1.0000
     0.0000   0.0000   0.0000   0.0000   0.0000   0.0000   0.0000   0.0000
     0.0000   0.0000   0.0000   0.0000

          k = 0.0001 0.1589 0.1468 (  3246 PWs)   bands (ev):

   -49.4598 -49.4598 -49.4418 -49.4418 -22.4018 -22.3989 -22.3293 -22.3289
   -13.8585 -13.8386 -13.6680 -13.6473 -13.6164 -13.6084 -13.5154 -13.4976
    -2.3933  -2.3933  -2.3925  -2.3924  -2.3866  -2.3862  -2.3858  -2.3856
    -2.3626  -2.3625  -2.3623  -2.3619  -0.4134  -0.4130  -0.4125  -0.4117
    -0.4095  -0.4090  -0.4083  -0.4079  -0.3972  -0.3972  -0.3964  -0.3955
    -0.3784  -0.3774  -0.3733  -0.3730   4.6818   4.6853   7.3907   7.4975
    11.2600  11.3166  14.5228  14.5611  15.2252  15.2484  15.5971  15.6373
    15.8718  15.9939  16.1553  16.1857  16.6093  16.6158  16.8740  16.9871
    19.0912  19.1687  19.9095  20.0345  20.8159  20.8318  21.1448  21.2975
    21.8703  22.0476  22.1795  22.2997

     occupation numbers 
     1.0000   1.0000   1.0000   1.0000   1.0000   1.0000   1.0000   1.0000
     1.0000   1.0000   1.0000   1.0000   1.0000   1.0000   1.0000   1.0000
     1.0000   1.0000   1.0000   1.0000   1.0000   1.0000   1.0000   1.0000
     1.0000   1.0000   1.0000   1.0000   1.0000   1.0000   1.0000   1.0000
     1.0000   1.0000   1.0000   1.0000   1.0000   1.0000   1.0000   1.0000
     1.0000   1.0000   1.0000   1.0000   1.0000   1.0000   1.0000   1.0000
     1.0000   1.0000   1.0000   1.0000   1.0000   1.0000   1.0000   1.0000
     1.0000   1.0000   1.0000   1.0000   1.0000   1.0000   1.0000   1.0000
     0.0000   0.0000   0.0000   0.0000   0.0000   0.0000   0.0000   0.0000
     0.0000   0.0000   0.0000   0.0000

          k = 0.0001 0.1589 0.4403 (  3252 PWs)   bands (ev):

   -49.4553 -49.4553 -49.4396 -49.4396 -22.4120 -22.4065 -22.3490 -22.3477
   -13.8722 -13.8262 -13.7311 -13.6928 -13.6830 -13.6597 -13.5430 -13.5134
    -2.3933  -2.3932  -2.3926  -2.3924  -2.3871  -2.3865  -2.3854  -2.3852
    -2.3626  -2.3625  -2.3623  -2.3620  -0.4136  -0.4132  -0.4127  -0.4103
    -0.4100  -0.4091  -0.4075  -0.4061  -0.3987  -0.3979  -0.3970  -0.3954
    -0.3785  -0.3764  -0.3738  -0.3731   5.3864   5.4028   7.5778   7.7580
    11.6167  11.6890  13.6543  13.7784  13.9895  14.0711  14.9043  14.9843
    15.4770  15.5083  16.3573  16.4170  16.9119  17.0569  17.3953  17.6038
    18.5537  18.7660  18.9539  19.1378  20.5092  20.5679  21.4696  21.6092
    21.9975  22.2006  22.5124  22.6836

     occupation numbers 
     1.0000   1.0000   1.0000   1.0000   1.0000   1.0000   1.0000   1.0000
     1.0000   1.0000   1.0000   1.0000   1.0000   1.0000   1.0000   1.0000
     1.0000   1.0000   1.0000   1.0000   1.0000   1.0000   1.0000   1.0000
     1.0000   1.0000   1.0000   1.0000   1.0000   1.0000   1.0000   1.0000
     1.0000   1.0000   1.0000   1.0000   1.0000   1.0000   1.0000   1.0000
     1.0000   1.0000   1.0000   1.0000   1.0000   1.0000   1.0000   1.0000
     1.0000   1.0000   1.0000   1.0000   1.0000   1.0000   1.0000   1.0000
     1.0000   1.0000   1.0000   1.0000   1.0000   1.0000   1.0000   1.0000
     0.0112   0.0000   0.0000   0.0000   0.0000   0.0000   0.0000   0.0000
     0.0000   0.0000   0.0000   0.0000

          k = 0.0001 0.1589 0.7339 (  3248 PWs)   bands (ev):

   -49.4481 -49.4481 -49.4365 -49.4365 -22.4247 -22.4182 -22.3793 -22.3767
   -13.8965 -13.8426 -13.7851 -13.7717 -13.7667 -13.6989 -13.5917 -13.5552
    -2.3932  -2.3930  -2.3925  -2.3923  -2.3875  -2.3863  -2.3853  -2.3845
    -2.3626  -2.3625  -2.3623  -2.3621  -0.4138  -0.4131  -0.4124  -0.4103
    -0.4094  -0.4078  -0.4056  -0.4041  -0.4009  -0.3988  -0.3979  -0.3958
    -0.3780  -0.3751  -0.3746  -0.3730   6.4817   6.5266   7.7477   7.8803
    11.9882  12.0281  12.6913  12.8745  13.3182  13.3996  14.0484  14.1372
    14.9608  14.9928  15.8622  15.9756  17.1408  17.2418  17.5009  17.6912
    18.6801  18.8906  19.8328  20.0541  20.6355  20.6979  22.0466  22.1387
    22.5320  22.6693  22.8824  23.1655

     occupation numbers 
     1.0000   1.0000   1.0000   1.0000   1.0000   1.0000   1.0000   1.0000
     1.0000   1.0000   1.0000   1.0000   1.0000   1.0000   1.0000   1.0000
     1.0000   1.0000   1.0000   1.0000   1.0000   1.0000   1.0000   1.0000
     1.0000   1.0000   1.0000   1.0000   1.0000   1.0000   1.0000   1.0000
     1.0000   1.0000   1.0000   1.0000   1.0000   1.0000   1.0000   1.0000
     1.0000   1.0000   1.0000   1.0000   1.0000   1.0000   1.0000   1.0000
     1.0000   1.0000   1.0000   1.0000   1.0000   1.0000   1.0000   1.0000
     1.0000   1.0000   1.0000   1.0000   1.0000   1.0000   1.0000   1.0000
     0.0002   0.0000   0.0000   0.0000   0.0000   0.0000   0.0000   0.0000
     0.0000   0.0000   0.0000   0.0000

          k = 0.0001 0.1589 1.0274 (  3253 PWs)   bands (ev):

   -49.4409 -49.4409 -49.4347 -49.4347 -22.4318 -22.4256 -22.4084 -22.4043
   -13.9286 -13.9001 -13.8448 -13.8421 -13.7514 -13.6974 -13.6493 -13.6084
    -2.3929  -2.3926  -2.3925  -2.3921  -2.3874  -2.3859  -2.3853  -2.3841
    -2.3626  -2.3625  -2.3624  -2.3623  -0.4137  -0.4127  -0.4123  -0.4101
    -0.4085  -0.4058  -0.4044  -0.4033  -0.4021  -0.3998  -0.3985  -0.3968
    -0.3773  -0.3756  -0.3738  -0.3727   7.3145   7.3611   7.7241   7.7675
    11.8159  11.8747  12.4082  12.5346  13.2828  13.3952  13.8950  14.0550
    14.8035  14.8465  15.1020  15.1787  16.9140  17.0508  17.4970  17.6497
    20.0793  20.2518  21.0224  21.0766  21.3357  21.4813  22.2297  22.3556
    22.4423  22.5154  23.0911  23.3617

     occupation numbers 
     1.0000   1.0000   1.0000   1.0000   1.0000   1.0000   1.0000   1.0000
     1.0000   1.0000   1.0000   1.0000   1.0000   1.0000   1.0000   1.0000
     1.0000   1.0000   1.0000   1.0000   1.0000   1.0000   1.0000   1.0000
     1.0000   1.0000   1.0000   1.0000   1.0000   1.0000   1.0000   1.0000
     1.0000   1.0000   1.0000   1.0000   1.0000   1.0000   1.0000   1.0000
     1.0000   1.0000   1.0000   1.0000   1.0000   1.0000   1.0000   1.0000
     1.0000   1.0000   1.0000   1.0000   1.0000   1.0000   1.0000   1.0000
     1.0000   1.0000   1.0000   1.0000   1.0000   1.0000   1.0000   1.0000
     0.0000   0.0000   0.0000   0.0000   0.0000   0.0000   0.0000   0.0000
     0.0000   0.0000   0.0000   0.0000

          k = 0.0001 0.1589 1.3209 (  3250 PWs)   bands (ev):

   -49.4363 -49.4363 -49.4357 -49.4357 -22.4278 -22.4267 -22.4220 -22.4212
   -13.9424 -13.9244 -13.8699 -13.8693 -13.7098 -13.7062 -13.6666 -13.6508
    -2.3926  -2.3925  -2.3922  -2.3921  -2.3868  -2.3864  -2.3847  -2.3844
    -2.3625  -2.3625  -2.3624  -2.3624  -0.4133  -0.4129  -0.4115  -0.4112
    -0.4063  -0.4061  -0.4041  -0.4036  -0.4013  -0.4008  -0.3982  -0.3977
    -0.3767  -0.3761  -0.3733  -0.3726   7.5705   7.5840   7.6132   7.6222
    12.3454  12.3666  12.4821  12.5339  13.0951  13.1218  13.2471  13.3061
    15.0129  15.0409  15.1008  15.1206  17.1428  17.2044  17.2655  17.3538
    21.3312  21.4092  21.5484  21.5661  21.8325  21.8612  21.9771  22.0243
    22.6605  22.7452  22.9369  22.9885

     occupation numbers 
     1.0000   1.0000   1.0000   1.0000   1.0000   1.0000   1.0000   1.0000
     1.0000   1.0000   1.0000   1.0000   1.0000   1.0000   1.0000   1.0000
     1.0000   1.0000   1.0000   1.0000   1.0000   1.0000   1.0000   1.0000
     1.0000   1.0000   1.0000   1.0000   1.0000   1.0000   1.0000   1.0000
     1.0000   1.0000   1.0000   1.0000   1.0000   1.0000   1.0000   1.0000
     1.0000   1.0000   1.0000   1.0000   1.0000   1.0000   1.0000   1.0000
     1.0000   1.0000   1.0000   1.0000   1.0000   1.0000   1.0000   1.0000
     1.0000   1.0000   1.0000   1.0000   1.0000   1.0000   1.0000   1.0000
     0.0000   0.0000   0.0000   0.0000   0.0000   0.0000   0.0000   0.0000
     0.0000   0.0000   0.0000   0.0000

          k = 0.0002 0.3178 0.2935 (  3267 PWs)   bands (ev):

   -49.4562 -49.4562 -49.4406 -49.4406 -22.4077 -22.4029 -22.3451 -22.3442
   -13.8685 -13.8294 -13.7135 -13.6753 -13.6674 -13.6572 -13.5299 -13.5072
    -2.3933  -2.3932  -2.3926  -2.3925  -2.3870  -2.3864  -2.3857  -2.3854
    -2.3627  -2.3624  -2.3624  -2.3620  -0.4136  -0.4134  -0.4127  -0.4119
    -0.4100  -0.4091  -0.4076  -0.4060  -0.3983  -0.3983  -0.3966  -0.3952
    -0.3784  -0.3766  -0.3738  -0.3732   5.2645   5.2752   7.4500   7.6198
    11.5532  11.5822  13.6576  13.7522  14.2004  14.3763  15.2941  15.3448
    16.0984  16.1988  16.2548  16.2636  16.3387  16.4233  17.3911  17.5447
    18.7527  18.8361  19.6209  19.7160  20.1392  20.1499  20.8567  20.8916
    21.8073  22.0592  22.7174  22.8011

     occupation numbers 
     1.0000   1.0000   1.0000   1.0000   1.0000   1.0000   1.0000   1.0000
     1.0000   1.0000   1.0000   1.0000   1.0000   1.0000   1.0000   1.0000
     1.0000   1.0000   1.0000   1.0000   1.0000   1.0000   1.0000   1.0000
     1.0000   1.0000   1.0000   1.0000   1.0000   1.0000   1.0000   1.0000
     1.0000   1.0000   1.0000   1.0000   1.0000   1.0000   1.0000   1.0000
     1.0000   1.0000   1.0000   1.0000   1.0000   1.0000   1.0000   1.0000
     1.0000   1.0000   1.0000   1.0000   1.0000   1.0000   1.0000   1.0000
     1.0000   1.0000   1.0000   1.0000   1.0000   1.0000   1.0000   1.0000
     0.0000   0.0000   0.0000   0.0000   0.0000   0.0000   0.0000   0.0000
     0.0000   0.0000   0.0000   0.0000

          k = 0.0002 0.3178 0.5871 (  3257 PWs)   bands (ev):

   -49.4510 -49.4510 -49.4383 -49.4383 -22.4172 -22.4115 -22.3675 -22.3654
   -13.8940 -13.8489 -13.7641 -13.7406 -13.7230 -13.6868 -13.5518 -13.5265
    -2.3933  -2.3931  -2.3925  -2.3924  -2.3872  -2.3864  -2.3855  -2.3851
    -2.3626  -2.3625  -2.3623  -2.3620  -0.4140  -0.4135  -0.4129  -0.4110
    -0.4103  -0.4093  -0.4058  -0.4039  -0.4001  -0.3989  -0.3967  -0.3951
    -0.3779  -0.3755  -0.3742  -0.3730   6.1746   6.2104   7.6263   7.7961
    11.7189  11.7833  12.5882  12.6804  13.5983  13.8674  14.5261  14.5736
    15.5816  15.6164  16.2578  16.4006  16.7517  16.7988  17.5329  17.7256
    18.7747  18.8554  19.3903  19.5081  20.6506  20.7203  21.3847  21.4918
    21.7380  21.9698  22.5030  22.6860

     occupation numbers 
     1.0000   1.0000   1.0000   1.0000   1.0000   1.0000   1.0000   1.0000
     1.0000   1.0000   1.0000   1.0000   1.0000   1.0000   1.0000   1.0000
     1.0000   1.0000   1.0000   1.0000   1.0000   1.0000   1.0000   1.0000
     1.0000   1.0000   1.0000   1.0000   1.0000   1.0000   1.0000   1.0000
     1.0000   1.0000   1.0000   1.0000   1.0000   1.0000   1.0000   1.0000
     1.0000   1.0000   1.0000   1.0000   1.0000   1.0000   1.0000   1.0000
     1.0000   1.0000   1.0000   1.0000   1.0000   1.0000   1.0000   1.0000
     1.0000   1.0000   1.0000   1.0000   1.0000   1.0000   1.0000   1.0000
     0.0000   0.0000   0.0000   0.0000   0.0000   0.0000   0.0000   0.0000
     0.0000   0.0000   0.0000   0.0000

          k = 0.0002 0.3178 0.8806 (  3258 PWs)   bands (ev):

   -49.4447 -49.4447 -49.4363 -49.4363 -22.4253 -22.4197 -22.3934 -22.3901
   -13.9170 -13.8828 -13.8123 -13.8006 -13.7472 -13.7031 -13.6029 -13.5726
    -2.3931  -2.3929  -2.3925  -2.3922  -2.3875  -2.3862  -2.3853  -2.3845
    -2.3626  -2.3624  -2.3623  -2.3622  -0.4139  -0.4133  -0.4120  -0.4107
    -0.4098  -0.4084  -0.4042  -0.4031  -0.4018  -0.3994  -0.3973  -0.3961
    -0.3773  -0.3753  -0.3742  -0.3729   7.1146   7.1835   7.6527   7.7438
    11.4872  11.5332  12.3066  12.4456  13.5300  13.6098  14.0784  14.1954
    15.1982  15.2683  15.4147  15.5551  17.0785  17.1219  17.2045  17.3981
    19.2699  19.4511  20.6478  20.8164  21.2464  21.3599  21.7785  21.8590
    22.2868  22.3844  22.7999  22.8879

     occupation numbers 
     1.0000   1.0000   1.0000   1.0000   1.0000   1.0000   1.0000   1.0000
     1.0000   1.0000   1.0000   1.0000   1.0000   1.0000   1.0000   1.0000
     1.0000   1.0000   1.0000   1.0000   1.0000   1.0000   1.0000   1.0000
     1.0000   1.0000   1.0000   1.0000   1.0000   1.0000   1.0000   1.0000
     1.0000   1.0000   1.0000   1.0000   1.0000   1.0000   1.0000   1.0000
     1.0000   1.0000   1.0000   1.0000   1.0000   1.0000   1.0000   1.0000
     1.0000   1.0000   1.0000   1.0000   1.0000   1.0000   1.0000   1.0000
     1.0000   1.0000   1.0000   1.0000   1.0000   1.0000   1.0000   1.0000
     0.0000   0.0000   0.0000   0.0000   0.0000   0.0000   0.0000   0.0000
     0.0000   0.0000   0.0000   0.0000

          k = 0.0002 0.3178 1.1742 (  3245 PWs)   bands (ev):

   -49.4396 -49.4396 -49.4360 -49.4360 -22.4264 -22.4219 -22.4126 -22.4093
   -13.9298 -13.8968 -13.8463 -13.8435 -13.7266 -13.6985 -13.6571 -13.6241
    -2.3927  -2.3926  -2.3924  -2.3922  -2.3872  -2.3863  -2.3849  -2.3842
    -2.3626  -2.3624  -2.3624  -2.3623  -0.4135  -0.4128  -0.4119  -0.4105
    -0.4082  -0.4061  -0.4043  -0.4031  -0.4021  -0.4003  -0.3980  -0.3969
    -0.3769  -0.3756  -0.3738  -0.3727   7.4308   7.4708   7.6026   7.6323
    11.9330  11.9787  12.4660  12.5370  13.0914  13.3113  13.7209  13.9000
    14.9574  15.0478  15.1962  15.2536  16.8980  17.0060  17.2907  17.4257
    20.3496  20.4919  21.2140  21.2904  21.5230  21.5919  21.8322  21.9688
    22.5676  22.7663  22.8825  23.0244

     occupation numbers 
     1.0000   1.0000   1.0000   1.0000   1.0000   1.0000   1.0000   1.0000
     1.0000   1.0000   1.0000   1.0000   1.0000   1.0000   1.0000   1.0000
     1.0000   1.0000   1.0000   1.0000   1.0000   1.0000   1.0000   1.0000
     1.0000   1.0000   1.0000   1.0000   1.0000   1.0000   1.0000   1.0000
     1.0000   1.0000   1.0000   1.0000   1.0000   1.0000   1.0000   1.0000
     1.0000   1.0000   1.0000   1.0000   1.0000   1.0000   1.0000   1.0000
     1.0000   1.0000   1.0000   1.0000   1.0000   1.0000   1.0000   1.0000
     1.0000   1.0000   1.0000   1.0000   1.0000   1.0000   1.0000   1.0000
     0.0000   0.0000   0.0000   0.0000   0.0000   0.0000   0.0000   0.0000
     0.0000   0.0000   0.0000   0.0000

          k = 0.0002 0.3178 0.0000 (  3255 PWs)   bands (ev):

   -49.4581 -49.4581 -49.4416 -49.4416 -22.4033 -22.3994 -22.3363 -22.3358
   -13.8547 -13.8275 -13.6876 -13.6614 -13.6349 -13.6205 -13.5336 -13.5087
    -2.3933  -2.3932  -2.3926  -2.3925  -2.3868  -2.3864  -2.3855  -2.3855
    -2.3627  -2.3626  -2.3623  -2.3619  -0.4136  -0.4130  -0.4126  -0.4107
    -0.4097  -0.4091  -0.4081  -0.4080  -0.3975  -0.3975  -0.3967  -0.3957
    -0.3784  -0.3770  -0.3735  -0.3732   4.9099   4.9149   7.3473   7.4765
    11.4916  11.5673  14.2726  14.3012  15.1544  15.1828  15.2788  15.2904
    15.3247  15.4160  16.0701  16.1682  16.8753  16.9575  17.1187  17.2499
    18.8541  19.0025  19.3604  19.5366  20.9666  21.0885  21.4324  21.4794
    22.0991  22.1045  22.4611  22.5131

     occupation numbers 
     1.0000   1.0000   1.0000   1.0000   1.0000   1.0000   1.0000   1.0000
     1.0000   1.0000   1.0000   1.0000   1.0000   1.0000   1.0000   1.0000
     1.0000   1.0000   1.0000   1.0000   1.0000   1.0000   1.0000   1.0000
     1.0000   1.0000   1.0000   1.0000   1.0000   1.0000   1.0000   1.0000
     1.0000   1.0000   1.0000   1.0000   1.0000   1.0000   1.0000   1.0000
     1.0000   1.0000   1.0000   1.0000   1.0000   1.0000   1.0000   1.0000
     1.0000   1.0000   1.0000   1.0000   1.0000   1.0000   1.0000   1.0000
     1.0000   1.0000   1.0000   1.0000   1.0000   1.0000   1.0000   1.0000
     0.0000   0.0000   0.0000   0.0000   0.0000   0.0000   0.0000   0.0000
     0.0000   0.0000   0.0000   0.0000

          k = 0.0002 0.4767 0.4403 (  3273 PWs)   bands (ev):

   -49.4518 -49.4518 -49.4395 -49.4395 -22.4125 -22.4077 -22.3641 -22.3626
   -13.8901 -13.8542 -13.7546 -13.7364 -13.7002 -13.6771 -13.5358 -13.5187
    -2.3934  -2.3932  -2.3926  -2.3924  -2.3870  -2.3863  -2.3858  -2.3855
    -2.3626  -2.3625  -2.3624  -2.3621  -0.4137  -0.4137  -0.4131  -0.4129
    -0.4102  -0.4094  -0.4058  -0.4039  -0.3994  -0.3993  -0.3962  -0.3949
    -0.3777  -0.3757  -0.3741  -0.3732   6.1038   6.1313   7.5147   7.6873
    11.6294  11.6875  12.4014  12.4724  13.9116  14.2686  14.9565  14.9931
    15.9397  15.9667  16.0902  16.2598  16.4540  16.4948  17.8091  18.0054
    18.5091  18.5733  19.7858  19.8115  20.1816  20.2768  20.8774  21.0113
    21.6306  21.7014  23.0032  23.0395

     occupation numbers 
     1.0000   1.0000   1.0000   1.0000   1.0000   1.0000   1.0000   1.0000
     1.0000   1.0000   1.0000   1.0000   1.0000   1.0000   1.0000   1.0000
     1.0000   1.0000   1.0000   1.0000   1.0000   1.0000   1.0000   1.0000
     1.0000   1.0000   1.0000   1.0000   1.0000   1.0000   1.0000   1.0000
     1.0000   1.0000   1.0000   1.0000   1.0000   1.0000   1.0000   1.0000
     1.0000   1.0000   1.0000   1.0000   1.0000   1.0000   1.0000   1.0000
     1.0000   1.0000   1.0000   1.0000   1.0000   1.0000   1.0000   1.0000
     1.0000   1.0000   1.0000   1.0000   1.0000   1.0000   1.0000   0.9997
     0.0344   0.0064   0.0000   0.0000   0.0000   0.0000   0.0000   0.0000
     0.0000   0.0000   0.0000   0.0000

          k = 0.0002 0.4767 0.7339 (  3263 PWs)   bands (ev):

   -49.4477 -49.4477 -49.4381 -49.4381 -22.4177 -22.4137 -22.3814 -22.3792
   -13.9114 -13.8861 -13.7955 -13.7805 -13.7133 -13.6894 -13.5569 -13.5394
    -2.3932  -2.3931  -2.3925  -2.3924  -2.3870  -2.3862  -2.3856  -2.3852
    -2.3626  -2.3624  -2.3623  -2.3622  -0.4143  -0.4137  -0.4130  -0.4116
    -0.4106  -0.4096  -0.4043  -0.4032  -0.4004  -0.3993  -0.3961  -0.3953
    -0.3770  -0.3756  -0.3740  -0.3731   6.9658   7.0373   7.5371   7.6552
    11.2075  11.2683  12.0428  12.1423  13.8630  13.9728  14.5526  14.6607
    15.5621  15.5795  15.8121  15.9690  16.6928  16.7561  17.4547  17.7025
    18.9608  19.1186  19.7965  19.9207  21.2302  21.3853  21.5451  21.6153
    21.9684  22.1802  22.4261  22.5838

     occupation numbers 
     1.0000   1.0000   1.0000   1.0000   1.0000   1.0000   1.0000   1.0000
     1.0000   1.0000   1.0000   1.0000   1.0000   1.0000   1.0000   1.0000
     1.0000   1.0000   1.0000   1.0000   1.0000   1.0000   1.0000   1.0000
     1.0000   1.0000   1.0000   1.0000   1.0000   1.0000   1.0000   1.0000
     1.0000   1.0000   1.0000   1.0000   1.0000   1.0000   1.0000   1.0000
     1.0000   1.0000   1.0000   1.0000   1.0000   1.0000   1.0000   1.0000
     1.0000   1.0000   1.0000   1.0000   1.0000   1.0000   1.0000   1.0000
     1.0000   1.0000   1.0000   1.0000   1.0000   1.0000   1.0000   1.0000
     0.0000   0.0000   0.0000   0.0000   0.0000   0.0000   0.0000   0.0000
     0.0000   0.0000   0.0000   0.0000

          k = 0.0002 0.4767 1.0274 (  3253 PWs)   bands (ev):

   -49.4437 -49.4437 -49.4373 -49.4373 -22.4208 -22.4170 -22.3964 -22.3942
   -13.9138 -13.8837 -13.8134 -13.7999 -13.7280 -13.7070 -13.6089 -13.5846
    -2.3930  -2.3929  -2.3925  -2.3923  -2.3873  -2.3864  -2.3852  -2.3845
    -2.3626  -2.3623  -2.3623  -2.3622  -0.4138  -0.4132  -0.4119  -0.4108
    -0.4099  -0.4084  -0.4041  -0.4032  -0.4016  -0.3996  -0.3970  -0.3962
    -0.3769  -0.3756  -0.3741  -0.3730   7.2406   7.2962   7.5385   7.5979
    11.5152  11.5665  12.2391  12.3208  13.5011  13.6651  14.3384  14.5043
    14.9953  15.1157  15.3968  15.5120  16.8691  16.9408  17.2093  17.3680
    19.5936  19.7302  20.7042  20.8212  21.5149  21.6257  21.7965  21.9324
    22.1406  22.2654  22.7216  22.8445

     occupation numbers 
     1.0000   1.0000   1.0000   1.0000   1.0000   1.0000   1.0000   1.0000
     1.0000   1.0000   1.0000   1.0000   1.0000   1.0000   1.0000   1.0000
     1.0000   1.0000   1.0000   1.0000   1.0000   1.0000   1.0000   1.0000
     1.0000   1.0000   1.0000   1.0000   1.0000   1.0000   1.0000   1.0000
     1.0000   1.0000   1.0000   1.0000   1.0000   1.0000   1.0000   1.0000
     1.0000   1.0000   1.0000   1.0000   1.0000   1.0000   1.0000   1.0000
     1.0000   1.0000   1.0000   1.0000   1.0000   1.0000   1.0000   1.0000
     1.0000   1.0000   1.0000   1.0000   1.0000   1.0000   1.0000   1.0000
     0.0000   0.0000   0.0000   0.0000   0.0000   0.0000   0.0000   0.0000
     0.0000   0.0000   0.0000   0.0000

          k = 0.0002 0.4767 1.3209 (  3246 PWs)   bands (ev):

   -49.4419 -49.4419 -49.4372 -49.4372 -22.4214 -22.4172 -22.4021 -22.4012
   -13.9088 -13.8616 -13.8257 -13.8183 -13.7150 -13.7092 -13.6484 -13.6145
    -2.3928  -2.3926  -2.3925  -2.3923  -2.3873  -2.3865  -2.3849  -2.3843
    -2.3625  -2.3625  -2.3623  -2.3622  -0.4135  -0.4129  -0.4118  -0.4107
    -0.4080  -0.4068  -0.4051  -0.4040  -0.4015  -0.4002  -0.3979  -0.3965
    -0.3771  -0.3754  -0.3742  -0.3729   7.1246   7.1520   7.5716   7.6031
    12.3068  12.3139  12.4443  12.4525  13.3707  13.4796  13.7753  13.8305
    14.7666  14.7694  15.3853  15.4211  16.8692  16.9683  17.2788  17.3467
    20.0781  20.2269  20.5359  20.5507  21.5276  21.5401  21.8031  21.8425
    22.7350  22.9152  23.2344  23.3209

     occupation numbers 
     1.0000   1.0000   1.0000   1.0000   1.0000   1.0000   1.0000   1.0000
     1.0000   1.0000   1.0000   1.0000   1.0000   1.0000   1.0000   1.0000
     1.0000   1.0000   1.0000   1.0000   1.0000   1.0000   1.0000   1.0000
     1.0000   1.0000   1.0000   1.0000   1.0000   1.0000   1.0000   1.0000
     1.0000   1.0000   1.0000   1.0000   1.0000   1.0000   1.0000   1.0000
     1.0000   1.0000   1.0000   1.0000   1.0000   1.0000   1.0000   1.0000
     1.0000   1.0000   1.0000   1.0000   1.0000   1.0000   1.0000   1.0000
     1.0000   1.0000   1.0000   1.0000   1.0000   1.0000   1.0000   1.0000
     0.0000   0.0000   0.0000   0.0000   0.0000   0.0000   0.0000   0.0000
     0.0000   0.0000   0.0000   0.0000

          k = 0.0002 0.4767-0.1468 (  3252 PWs)   bands (ev):

   -49.4544 -49.4544 -49.4405 -49.4405 -22.4081 -22.4031 -22.3523 -22.3515
   -13.8596 -13.8183 -13.7265 -13.6919 -13.6837 -13.6632 -13.5536 -13.5264
    -2.3933  -2.3932  -2.3926  -2.3925  -2.3871  -2.3865  -2.3854  -2.3851
    -2.3626  -2.3625  -2.3623  -2.3619  -0.4137  -0.4130  -0.4127  -0.4105
    -0.4100  -0.4091  -0.4076  -0.4063  -0.3987  -0.3980  -0.3969  -0.3954
    -0.3781  -0.3762  -0.3738  -0.3732   5.4913   5.5019   7.3850   7.5379
    11.8741  11.9236  13.5151  13.5992  14.1285  14.2444  14.8954  14.9554
    15.3903  15.4319  16.0770  16.1105  16.8486  16.9539  17.5573  17.7738
    18.5254  18.8213  19.2427  19.3842  20.5802  20.6500  21.5398  21.6244
    22.0148  22.2152  22.5223  22.6880

     occupation numbers 
     1.0000   1.0000   1.0000   1.0000   1.0000   1.0000   1.0000   1.0000
     1.0000   1.0000   1.0000   1.0000   1.0000   1.0000   1.0000   1.0000
     1.0000   1.0000   1.0000   1.0000   1.0000   1.0000   1.0000   1.0000
     1.0000   1.0000   1.0000   1.0000   1.0000   1.0000   1.0000   1.0000
     1.0000   1.0000   1.0000   1.0000   1.0000   1.0000   1.0000   1.0000
     1.0000   1.0000   1.0000   1.0000   1.0000   1.0000   1.0000   1.0000
     1.0000   1.0000   1.0000   1.0000   1.0000   1.0000   1.0000   1.0000
     1.0000   1.0000   1.0000   1.0000   1.0000   1.0000   1.0000   1.0000
     0.0233   0.0000   0.0000   0.0000   0.0000   0.0000   0.0000   0.0000
     0.0000   0.0000   0.0000   0.0000

          k = 0.0003 0.6356 0.5871 (  3269 PWs)   bands (ev):

   -49.4487 -49.4487 -49.4390 -49.4390 -22.4134 -22.4111 -22.3771 -22.3761
   -13.9061 -13.8933 -13.7874 -13.7827 -13.6905 -13.6805 -13.5361 -13.5296
    -2.3933  -2.3932  -2.3925  -2.3924  -2.3865  -2.3861  -2.3860  -2.3857
    -2.3625  -2.3624  -2.3623  -2.3622  -0.4139  -0.4138  -0.4136  -0.4135
    -0.4101  -0.4098  -0.4043  -0.4035  -0.3996  -0.3996  -0.3955  -0.3950
    -0.3767  -0.3758  -0.3737  -0.3733   6.9369   6.9965   7.4650   7.5867
    11.0886  11.0903  11.9632  11.9660  14.1950  14.4067  14.7370  14.7495
    15.7326  15.7440  15.8993  16.0492  16.5087  16.5503  17.9905  18.0844
    18.4644  18.4844  19.8633  19.8696  20.9148  21.0465  21.1500  21.2797
    21.8683  21.9109  22.4597  22.8512

     occupation numbers 
     1.0000   1.0000   1.0000   1.0000   1.0000   1.0000   1.0000   1.0000
     1.0000   1.0000   1.0000   1.0000   1.0000   1.0000   1.0000   1.0000
     1.0000   1.0000   1.0000   1.0000   1.0000   1.0000   1.0000   1.0000
     1.0000   1.0000   1.0000   1.0000   1.0000   1.0000   1.0000   1.0000
     1.0000   1.0000   1.0000   1.0000   1.0000   1.0000   1.0000   1.0000
     1.0000   1.0000   1.0000   1.0000   1.0000   1.0000   1.0000   1.0000
     1.0000   1.0000   1.0000   1.0000   1.0000   1.0000   1.0000   1.0000
     1.0000   1.0000   1.0000   1.0000   1.0000   1.0000   0.9998   0.9953
     0.0875   0.0590   0.0000   0.0000   0.0000   0.0000   0.0000   0.0000
     0.0000   0.0000   0.0000   0.0000

          k = 0.0003 0.6356 0.8806 (  3270 PWs)   bands (ev):

   -49.4472 -49.4472 -49.4386 -49.4386 -22.4149 -22.4126 -22.3827 -22.3819
   -13.9054 -13.8899 -13.7939 -13.7806 -13.7043 -13.6935 -13.5586 -13.5470
    -2.3933  -2.3931  -2.3925  -2.3924  -2.3870  -2.3864  -2.3855  -2.3852
    -2.3626  -2.3624  -2.3623  -2.3622  -0.4143  -0.4137  -0.4130  -0.4117
    -0.4107  -0.4098  -0.4040  -0.4036  -0.4004  -0.3994  -0.3960  -0.3955
    -0.3767  -0.3758  -0.3739  -0.3733   7.0468   7.1018   7.4723   7.5730
    11.1695  11.2265  12.0210  12.1155  14.0059  14.0483  14.6800  14.7962
    15.5165  15.5636  15.6182  15.7984  16.6299  16.7037  17.4805  17.6970
    19.1163  19.2410  19.8182  19.9439  21.2149  21.3589  21.5390  21.6668
    21.9223  22.1045  22.4160  22.6442

     occupation numbers 
     1.0000   1.0000   1.0000   1.0000   1.0000   1.0000   1.0000   1.0000
     1.0000   1.0000   1.0000   1.0000   1.0000   1.0000   1.0000   1.0000
     1.0000   1.0000   1.0000   1.0000   1.0000   1.0000   1.0000   1.0000
     1.0000   1.0000   1.0000   1.0000   1.0000   1.0000   1.0000   1.0000
     1.0000   1.0000   1.0000   1.0000   1.0000   1.0000   1.0000   1.0000
     1.0000   1.0000   1.0000   1.0000   1.0000   1.0000   1.0000   1.0000
     1.0000   1.0000   1.0000   1.0000   1.0000   1.0000   1.0000   1.0000
     1.0000   1.0000   1.0000   1.0000   1.0000   1.0000   1.0000   1.0000
     0.0000   0.0000   0.0000   0.0000   0.0000   0.0000   0.0000   0.0000
     0.0000   0.0000   0.0000   0.0000

          k = 0.0003 0.6356 1.1742 (  3247 PWs)   bands (ev):

   -49.4462 -49.4462 -49.4384 -49.4384 -22.4167 -22.4120 -22.3855 -22.3846
   -13.8864 -13.8444 -13.7844 -13.7738 -13.7252 -13.7072 -13.6092 -13.5800
    -2.3930  -2.3928  -2.3926  -2.3924  -2.3873  -2.3866  -2.3851  -2.3845
    -2.3626  -2.3625  -2.3622  -2.3621  -0.4136  -0.4130  -0.4120  -0.4105
    -0.4095  -0.4080  -0.4058  -0.4043  -0.4008  -0.3993  -0.3974  -0.3959
    -0.3773  -0.3754  -0.3742  -0.3732   6.6818   6.7084   7.5000   7.5910
    12.2198  12.2508  12.4886  12.5468  13.6779  13.7726  14.0626  14.1802
    14.8381  14.8618  15.5966  15.6760  16.8875  16.9586  17.3686  17.4434
    19.4873  19.5928  20.0013  20.0965  21.1510  21.2226  21.9459  22.0762
    22.4563  22.4712  22.7225  22.9229

     occupation numbers 
     1.0000   1.0000   1.0000   1.0000   1.0000   1.0000   1.0000   1.0000
     1.0000   1.0000   1.0000   1.0000   1.0000   1.0000   1.0000   1.0000
     1.0000   1.0000   1.0000   1.0000   1.0000   1.0000   1.0000   1.0000
     1.0000   1.0000   1.0000   1.0000   1.0000   1.0000   1.0000   1.0000
     1.0000   1.0000   1.0000   1.0000   1.0000   1.0000   1.0000   1.0000
     1.0000   1.0000   1.0000   1.0000   1.0000   1.0000   1.0000   1.0000
     1.0000   1.0000   1.0000   1.0000   1.0000   1.0000   1.0000   1.0000
[...]
     0.0000   0.0000   0.0000   0.0000   0.0000   0.0000   0.0000   0.0000
     0.0000   0.0000   0.0000   0.0000

          k = 0.4495-0.7670 0.2935 (  3258 PWs)   bands (ev):

   -49.4447 -49.4447 -49.4363 -49.4363 -22.4253 -22.4197 -22.3934 -22.3901
   -13.9170 -13.8828 -13.8123 -13.8006 -13.7472 -13.7031 -13.6029 -13.5726
    -2.3931  -2.3929  -2.3925  -2.3922  -2.3875  -2.3862  -2.3853  -2.3845
    -2.3626  -2.3624  -2.3623  -2.3622  -0.4139  -0.4133  -0.4120  -0.4107
    -0.4098  -0.4084  -0.4042  -0.4031  -0.4018  -0.3994  -0.3973  -0.3961
    -0.3773  -0.3753  -0.3742  -0.3729   7.1146   7.1835   7.6527   7.7438
    11.4872  11.5332  12.3066  12.4456  13.5300  13.6098  14.0784  14.1954
    15.1982  15.2683  15.4147  15.5551  17.0785  17.1219  17.2045  17.3981
    19.2699  19.4511  20.6478  20.8164  21.2464  21.3599  21.7785  21.8590
    22.2868  22.3844  22.7999  22.8879

     occupation numbers 
     1.0000   1.0000   1.0000   1.0000   1.0000   1.0000   1.0000   1.0000
     1.0000   1.0000   1.0000   1.0000   1.0000   1.0000   1.0000   1.0000
     1.0000   1.0000   1.0000   1.0000   1.0000   1.0000   1.0000   1.0000
     1.0000   1.0000   1.0000   1.0000   1.0000   1.0000   1.0000   1.0000
     1.0000   1.0000   1.0000   1.0000   1.0000   1.0000   1.0000   1.0000
     1.0000   1.0000   1.0000   1.0000   1.0000   1.0000   1.0000   1.0000
     1.0000   1.0000   1.0000   1.0000   1.0000   1.0000   1.0000   1.0000
     1.0000   1.0000   1.0000   1.0000   1.0000   1.0000   1.0000   1.0000
     0.0000   0.0000   0.0000   0.0000   0.0000   0.0000   0.0000   0.0000
     0.0000   0.0000   0.0000   0.0000

          k = 0.4495-0.7670 0.5871 (  3254 PWs)   bands (ev):

   -49.4466 -49.4466 -49.4391 -49.4391 -22.4132 -22.4101 -22.3862 -22.3825
   -13.9044 -13.8869 -13.7951 -13.7803 -13.7067 -13.6847 -13.5663 -13.5492
    -2.3932  -2.3931  -2.3924  -2.3924  -2.3869  -2.3864  -2.3854  -2.3852
    -2.3626  -2.3623  -2.3622  -2.3622  -0.4142  -0.4135  -0.4128  -0.4116
    -0.4107  -0.4098  -0.4038  -0.4035  -0.4007  -0.3990  -0.3958  -0.3955
    -0.3764  -0.3758  -0.3739  -0.3732   7.1462   7.1891   7.3915   7.4687
    11.0503  11.1339  12.1512  12.2425  14.0133  14.0378  14.7929  14.8522
    15.4138  15.5098  15.5669  15.6734  16.6214  16.6680  17.4784  17.6837
    19.2145  19.3539  20.0133  20.1603  21.1960  21.2896  21.5529  21.6826
    21.8552  22.0069  22.3667  22.5890

     occupation numbers 
     1.0000   1.0000   1.0000   1.0000   1.0000   1.0000   1.0000   1.0000
     1.0000   1.0000   1.0000   1.0000   1.0000   1.0000   1.0000   1.0000
     1.0000   1.0000   1.0000   1.0000   1.0000   1.0000   1.0000   1.0000
     1.0000   1.0000   1.0000   1.0000   1.0000   1.0000   1.0000   1.0000
     1.0000   1.0000   1.0000   1.0000   1.0000   1.0000   1.0000   1.0000
     1.0000   1.0000   1.0000   1.0000   1.0000   1.0000   1.0000   1.0000
     1.0000   1.0000   1.0000   1.0000   1.0000   1.0000   1.0000   1.0000
     1.0000   1.0000   1.0000   1.0000   1.0000   1.0000   1.0000   1.0000
     0.0000   0.0000   0.0000   0.0000   0.0000   0.0000   0.0000   0.0000
     0.0000   0.0000   0.0000   0.0000

          k = 0.4495-0.7670 0.8806 (  3252 PWs)   bands (ev):

   -49.4488 -49.4488 -49.4424 -49.4424 -22.3988 -22.3985 -22.3762 -22.3732
   -13.8578 -13.8558 -13.7512 -13.7368 -13.6847 -13.6774 -13.5572 -13.5496
    -2.3932  -2.3930  -2.3926  -2.3924  -2.3868  -2.3862  -2.3858  -2.3853
    -2.3626  -2.3623  -2.3622  -2.3620  -0.4135  -0.4134  -0.4130  -0.4128
    -0.4101  -0.4099  -0.4052  -0.4045  -0.3999  -0.3986  -0.3959  -0.3950
    -0.3765  -0.3756  -0.3738  -0.3737   6.4825   6.4863   7.0545   7.1680
    11.7085  11.7636  12.4056  12.4188  14.5301  14.7593  15.0567  15.0728
    15.3077  15.3389  15.8016  15.8809  16.4600  16.5729  17.9648  18.1668
    18.6526  18.8802  19.8718  19.9919  20.5554  20.5870  20.7351  20.8692
    21.5864  21.7696  22.6991  23.0674

     occupation numbers 
     1.0000   1.0000   1.0000   1.0000   1.0000   1.0000   1.0000   1.0000
     1.0000   1.0000   1.0000   1.0000   1.0000   1.0000   1.0000   1.0000
     1.0000   1.0000   1.0000   1.0000   1.0000   1.0000   1.0000   1.0000
     1.0000   1.0000   1.0000   1.0000   1.0000   1.0000   1.0000   1.0000
     1.0000   1.0000   1.0000   1.0000   1.0000   1.0000   1.0000   1.0000
     1.0000   1.0000   1.0000   1.0000   1.0000   1.0000   1.0000   1.0000
     1.0000   1.0000   1.0000   1.0000   1.0000   1.0000   1.0000   1.0000
     1.0000   1.0000   1.0000   1.0000   1.0000   1.0000   0.9999   0.9588
     0.0005   0.0000   0.0000   0.0000   0.0000   0.0000   0.0000   0.0000
     0.0000   0.0000   0.0000   0.0000

          k = 0.4495-0.7670 1.1742 (  3261 PWs)   bands (ev):

   -49.4503 -49.4503 -49.4446 -49.4446 -22.3912 -22.3883 -22.3685 -22.3670
   -13.8121 -13.7962 -13.7068 -13.6942 -13.6842 -13.6757 -13.5866 -13.5733
    -2.3931  -2.3930  -2.3927  -2.3926  -2.3870  -2.3867  -2.3854  -2.3852
    -2.3627  -2.3625  -2.3622  -2.3621  -0.4137  -0.4130  -0.4121  -0.4110
    -0.4101  -0.4092  -0.4078  -0.4068  -0.3989  -0.3980  -0.3966  -0.3957
    -0.3767  -0.3756  -0.3741  -0.3740   5.9670   5.9857   6.6881   6.7680
    12.7531  12.7917  13.2776  13.3136  14.1920  14.3020  14.7028  14.7403
    15.0964  15.2223  15.6097  15.7716  16.6797  16.7620  17.5240  17.5909
    19.2536  19.4027  20.1769  20.2699  20.4356  20.5206  21.3705  21.4484
    21.8575  21.9898  22.5317  22.7326

     occupation numbers 
     1.0000   1.0000   1.0000   1.0000   1.0000   1.0000   1.0000   1.0000
     1.0000   1.0000   1.0000   1.0000   1.0000   1.0000   1.0000   1.0000
     1.0000   1.0000   1.0000   1.0000   1.0000   1.0000   1.0000   1.0000
     1.0000   1.0000   1.0000   1.0000   1.0000   1.0000   1.0000   1.0000
     1.0000   1.0000   1.0000   1.0000   1.0000   1.0000   1.0000   1.0000
     1.0000   1.0000   1.0000   1.0000   1.0000   1.0000   1.0000   1.0000
     1.0000   1.0000   1.0000   1.0000   1.0000   1.0000   1.0000   1.0000
     1.0000   1.0000   1.0000   1.0000   1.0000   1.0000   1.0000   1.0000
     0.0000   0.0000   0.0000   0.0000   0.0000   0.0000   0.0000   0.0000
     0.0000   0.0000   0.0000   0.0000

          k = 0.4495-0.7670-0.0000 (  3246 PWs)   bands (ev):

   -49.4439 -49.4439 -49.4352 -49.4352 -22.4298 -22.4234 -22.3959 -22.3929
   -13.9124 -13.8597 -13.8272 -13.8159 -13.7625 -13.7037 -13.6303 -13.5883
    -2.3930  -2.3927  -2.3925  -2.3921  -2.3876  -2.3861  -2.3853  -2.3842
    -2.3626  -2.3625  -2.3623  -2.3622  -0.4137  -0.4127  -0.4123  -0.4101
    -0.4086  -0.4058  -0.4055  -0.4040  -0.4017  -0.3992  -0.3989  -0.3963
    -0.3777  -0.3749  -0.3745  -0.3727   6.9429   6.9896   7.7717   7.8392
    12.0944  12.1267  12.3400  12.4264  13.4807  13.7363  14.1612  14.2226
    14.3092  14.3856  15.3776  15.4569  16.9981  17.2048  17.5078  17.5837
    19.4513  19.6449  20.4470  20.6260  20.8677  20.8746  22.5542  22.5803
    22.7668  22.8359  23.4128  23.4912

     occupation numbers 
     1.0000   1.0000   1.0000   1.0000   1.0000   1.0000   1.0000   1.0000
     1.0000   1.0000   1.0000   1.0000   1.0000   1.0000   1.0000   1.0000
     1.0000   1.0000   1.0000   1.0000   1.0000   1.0000   1.0000   1.0000
     1.0000   1.0000   1.0000   1.0000   1.0000   1.0000   1.0000   1.0000
     1.0000   1.0000   1.0000   1.0000   1.0000   1.0000   1.0000   1.0000
     1.0000   1.0000   1.0000   1.0000   1.0000   1.0000   1.0000   1.0000
     1.0000   1.0000   1.0000   1.0000   1.0000   1.0000   1.0000   1.0000
     1.0000   1.0000   1.0000   1.0000   1.0000   1.0000   1.0000   1.0000
     0.0000   0.0000   0.0000   0.0000   0.0000   0.0000   0.0000   0.0000
     0.0000   0.0000   0.0000   0.0000

          k = 0.4496-0.6081 0.4403 (  3263 PWs)   bands (ev):

   -49.4477 -49.4477 -49.4381 -49.4381 -22.4177 -22.4137 -22.3814 -22.3792
   -13.9114 -13.8861 -13.7955 -13.7805 -13.7133 -13.6894 -13.5569 -13.5394
    -2.3932  -2.3931  -2.3925  -2.3924  -2.3870  -2.3862  -2.3856  -2.3852
    -2.3626  -2.3624  -2.3623  -2.3622  -0.4143  -0.4137  -0.4130  -0.4116
    -0.4106  -0.4096  -0.4043  -0.4032  -0.4004  -0.3993  -0.3961  -0.3953
    -0.3770  -0.3756  -0.3740  -0.3731   6.9658   7.0374   7.5371   7.6552
    11.2075  11.2683  12.0428  12.1423  13.8630  13.9728  14.5526  14.6607
    15.5621  15.5795  15.8121  15.9690  16.6928  16.7561  17.4546  17.7025
    18.9608  19.1186  19.7965  19.9207  21.2302  21.3853  21.5451  21.6153
    21.9684  22.1802  22.4262  22.5838

     occupation numbers 
     1.0000   1.0000   1.0000   1.0000   1.0000   1.0000   1.0000   1.0000
     1.0000   1.0000   1.0000   1.0000   1.0000   1.0000   1.0000   1.0000
     1.0000   1.0000   1.0000   1.0000   1.0000   1.0000   1.0000   1.0000
     1.0000   1.0000   1.0000   1.0000   1.0000   1.0000   1.0000   1.0000
     1.0000   1.0000   1.0000   1.0000   1.0000   1.0000   1.0000   1.0000
     1.0000   1.0000   1.0000   1.0000   1.0000   1.0000   1.0000   1.0000
     1.0000   1.0000   1.0000   1.0000   1.0000   1.0000   1.0000   1.0000
     1.0000   1.0000   1.0000   1.0000   1.0000   1.0000   1.0000   1.0000
     0.0000   0.0000   0.0000   0.0000   0.0000   0.0000   0.0000   0.0000
     0.0000   0.0000   0.0000   0.0000

          k = 0.4496-0.6081 0.7339 (  3254 PWs)   bands (ev):

   -49.4481 -49.4481 -49.4395 -49.4395 -22.4105 -22.4096 -22.3799 -22.3777
   -13.9008 -13.8941 -13.7900 -13.7803 -13.6874 -13.6784 -13.5413 -13.5342
    -2.3932  -2.3931  -2.3924  -2.3924  -2.3864  -2.3860  -2.3859  -2.3855
    -2.3625  -2.3623  -2.3622  -2.3621  -0.4138  -0.4137  -0.4135  -0.4134
    -0.4100  -0.4100  -0.4038  -0.4038  -0.4000  -0.3990  -0.3953  -0.3951
    -0.3762  -0.3760  -0.3736  -0.3734   7.0379   7.0720   7.3895   7.4921
    10.9570  11.0234  12.0270  12.0327  14.4235  14.4817  14.7577  14.7578
    15.6965  15.7428  15.7849  15.8432  16.4346  16.5063  18.0857  18.3214
    18.3604  18.3851  20.0608  20.1073  20.9227  20.9523  21.1469  21.3317
    21.6845  21.8518  22.3874  22.7680

     occupation numbers 
     1.0000   1.0000   1.0000   1.0000   1.0000   1.0000   1.0000   1.0000
     1.0000   1.0000   1.0000   1.0000   1.0000   1.0000   1.0000   1.0000
     1.0000   1.0000   1.0000   1.0000   1.0000   1.0000   1.0000   1.0000
     1.0000   1.0000   1.0000   1.0000   1.0000   1.0000   1.0000   1.0000
     1.0000   1.0000   1.0000   1.0000   1.0000   1.0000   1.0000   1.0000
     1.0000   1.0000   1.0000   1.0000   1.0000   1.0000   1.0000   1.0000
     1.0000   1.0000   1.0000   1.0000   1.0000   1.0000   1.0000   1.0000
     1.0000   1.0000   1.0000   1.0000   1.0000   1.0000   0.9951   0.5520
     0.3918   0.2976   0.0000   0.0000   0.0000   0.0000   0.0000   0.0000
     0.0000   0.0000   0.0000   0.0000

          k = 0.4496-0.6081 1.0274 (  3258 PWs)   bands (ev):

   -49.4485 -49.4485 -49.4409 -49.4409 -22.4060 -22.4032 -22.3768 -22.3754
   -13.8685 -13.8520 -13.7535 -13.7405 -13.7032 -13.6928 -13.5707 -13.5579
    -2.3932  -2.3930  -2.3926  -2.3925  -2.3870  -2.3866  -2.3853  -2.3851
    -2.3626  -2.3624  -2.3623  -2.3621  -0.4139  -0.4132  -0.4126  -0.4113
    -0.4105  -0.4096  -0.4055  -0.4044  -0.4002  -0.3989  -0.3963  -0.3953
    -0.3769  -0.3756  -0.3740  -0.3736   6.4800   6.4913   7.2450   7.3589
    11.8857  11.9250  12.4317  12.4723  14.2957  14.4296  14.5079  14.5962
    15.3599  15.3985  15.6320  15.7415  16.6257  16.6831  17.6246  17.7241
    19.1984  19.2977  20.0114  20.0518  20.5394  20.6621  21.2304  21.3817
    21.9945  22.1699  22.4962  22.5577

     occupation numbers 
     1.0000   1.0000   1.0000   1.0000   1.0000   1.0000   1.0000   1.0000
     1.0000   1.0000   1.0000   1.0000   1.0000   1.0000   1.0000   1.0000
     1.0000   1.0000   1.0000   1.0000   1.0000   1.0000   1.0000   1.0000
     1.0000   1.0000   1.0000   1.0000   1.0000   1.0000   1.0000   1.0000
     1.0000   1.0000   1.0000   1.0000   1.0000   1.0000   1.0000   1.0000
     1.0000   1.0000   1.0000   1.0000   1.0000   1.0000   1.0000   1.0000
     1.0000   1.0000   1.0000   1.0000   1.0000   1.0000   1.0000   1.0000
     1.0000   1.0000   1.0000   1.0000   1.0000   1.0000   1.0000   1.0000
     0.0000   0.0000   0.0000   0.0000   0.0000   0.0000   0.0000   0.0000
     0.0000   0.0000   0.0000   0.0000

          k = 0.4496-0.6081 1.3209 (  3265 PWs)   bands (ev):

   -49.4486 -49.4486 -49.4415 -49.4415 -22.4044 -22.4001 -22.3748 -22.3746
   -13.8435 -13.8055 -13.7505 -13.7297 -13.7027 -13.6859 -13.6107 -13.5814
    -2.3931  -2.3930  -2.3927  -2.3926  -2.3873  -2.3868  -2.3851  -2.3849
    -2.3627  -2.3627  -2.3623  -2.3622  -0.4136  -0.4129  -0.4121  -0.4107
    -0.4090  -0.4085  -0.4072  -0.4068  -0.3994  -0.3990  -0.3971  -0.3961
    -0.3772  -0.3757  -0.3742  -0.3737   6.2298   6.2312   7.1222   7.2099
    12.7853  12.8241  13.1896  13.2036  13.7012  13.7039  14.1550  14.2032
    14.8284  14.8734  15.5943  15.6084  17.0683  17.0888  17.1841  17.2392
    19.6190  19.6547  19.8147  19.8886  20.9536  20.9844  21.5696  21.5867
    22.5944  22.6498  22.9423  23.0013

     occupation numbers 
     1.0000   1.0000   1.0000   1.0000   1.0000   1.0000   1.0000   1.0000
     1.0000   1.0000   1.0000   1.0000   1.0000   1.0000   1.0000   1.0000
     1.0000   1.0000   1.0000   1.0000   1.0000   1.0000   1.0000   1.0000
     1.0000   1.0000   1.0000   1.0000   1.0000   1.0000   1.0000   1.0000
     1.0000   1.0000   1.0000   1.0000   1.0000   1.0000   1.0000   1.0000
     1.0000   1.0000   1.0000   1.0000   1.0000   1.0000   1.0000   1.0000
     1.0000   1.0000   1.0000   1.0000   1.0000   1.0000   1.0000   1.0000
     1.0000   1.0000   1.0000   1.0000   1.0000   1.0000   1.0000   1.0000
     0.0000   0.0000   0.0000   0.0000   0.0000   0.0000   0.0000   0.0000
     0.0000   0.0000   0.0000   0.0000

          k = 0.4496-0.6081-0.1468 (  3254 PWs)   bands (ev):

   -49.4474 -49.4474 -49.4371 -49.4371 -22.4219 -22.4160 -22.3815 -22.3795
   -13.8933 -13.8419 -13.7883 -13.7726 -13.7485 -13.7023 -13.5982 -13.5641
    -2.3931  -2.3929  -2.3926  -2.3923  -2.3875  -2.3864  -2.3852  -2.3845
    -2.3626  -2.3626  -2.3623  -2.3621  -0.4138  -0.4131  -0.4123  -0.4104
    -0.4094  -0.4079  -0.4058  -0.4042  -0.4009  -0.3991  -0.3977  -0.3958
    -0.3778  -0.3752  -0.3744  -0.3730   6.5501   6.5886   7.6593   7.7761
    12.1009  12.1435  12.5104  12.6464  13.5647  13.6697  14.0376  14.1139
    14.9090  14.9386  15.7438  15.8424  17.0316  17.1328  17.4481  17.5497
    19.0226  19.1729  19.8497  20.0151  20.8837  20.9464  22.1169  22.2456
    22.4658  22.5872  22.7507  22.9867

     occupation numbers 
     1.0000   1.0000   1.0000   1.0000   1.0000   1.0000   1.0000   1.0000
     1.0000   1.0000   1.0000   1.0000   1.0000   1.0000   1.0000   1.0000
     1.0000   1.0000   1.0000   1.0000   1.0000   1.0000   1.0000   1.0000
     1.0000   1.0000   1.0000   1.0000   1.0000   1.0000   1.0000   1.0000
     1.0000   1.0000   1.0000   1.0000   1.0000   1.0000   1.0000   1.0000
     1.0000   1.0000   1.0000   1.0000   1.0000   1.0000   1.0000   1.0000
     1.0000   1.0000   1.0000   1.0000   1.0000   1.0000   1.0000   1.0000
     1.0000   1.0000   1.0000   1.0000   1.0000   1.0000   1.0000   1.0000
     0.0000   0.0000   0.0000   0.0000   0.0000   0.0000   0.0000   0.0000
     0.0000   0.0000   0.0000   0.0000

     the Fermi energy is    18.3340 ev

!    total energy              =   -2557.90899292 Ry
     total all-electron energy =    -63852.879648 Ry
     estimated scf accuracy    <       0.00000006 Ry
     smearing contrib. (-TS)   =      -0.00036074 Ry
     internal energy E=F+TS    =   -2557.90863217 Ry

     The total energy is F=E-TS. E is the sum of the following terms:
     one-electron contribution =   -1034.18449219 Ry
     hartree contribution      =     599.16770201 Ry
     xc contribution           =    -143.55860736 Ry
     ewald contribution        =    -792.92333941 Ry
     one-center paw contrib.   =   -1186.40989523 Ry
      -> PAW hartree energy AE =     595.49082455 Ry
      -> PAW hartree energy PS =    -589.11064257 Ry
      -> PAW xc energy AE      =    -624.31181907 Ry
      -> PAW xc energy PS      =      65.58838196 Ry
      -> total E_H with PAW    =     605.54788398 Ry
      -> total E_XC with PAW   =    -702.28204447 Ry

     convergence has been achieved in   8 iterations

     Writing all to output data dir ./out/TaP.save/

     init_run     :     36.47s CPU     36.81s WALL (       1 calls)
     electrons    :   1110.90s CPU   1117.69s WALL (       1 calls)

     Called by init_run:
     wfcinit      :     33.00s CPU     33.22s WALL (       1 calls)
     wfcinit:atom :      0.08s CPU      0.08s WALL (     205 calls)
     wfcinit:wfcr :     32.34s CPU     32.55s WALL (     205 calls)
     potinit      :      1.15s CPU      1.18s WALL (       1 calls)
     hinit0       :      1.35s CPU      1.37s WALL (       1 calls)

     Called by electrons:
     c_bands      :    905.47s CPU    909.30s WALL (       9 calls)
     sum_band     :    193.30s CPU    195.14s WALL (       9 calls)
     v_of_rho     :      0.37s CPU      0.38s WALL (       9 calls)
     v_h          :      0.02s CPU      0.02s WALL (       9 calls)
     v_xc         :      0.35s CPU      0.36s WALL (       9 calls)
     newd         :      7.41s CPU      8.39s WALL (       9 calls)
     PAW_pot      :      5.46s CPU      5.67s WALL (       9 calls)
     mix_rho      :      0.09s CPU      0.10s WALL (       9 calls)

     Called by c_bands:
     init_us_2    :      1.08s CPU      1.09s WALL (    3895 calls)
     init_us_2:cp :      1.07s CPU      1.08s WALL (    3895 calls)
     cegterg      :    891.89s CPU    895.44s WALL (    1845 calls)

     Called by sum_band:
     sum_band:wei :      0.07s CPU      0.07s WALL (       9 calls)
     sum_band:loo :    189.95s CPU    190.87s WALL (       9 calls)
     sum_band:buf :      0.36s CPU      0.37s WALL (    1845 calls)
     sum_band:ini :      0.46s CPU      0.47s WALL (    1845 calls)
     sum_band:cal :     19.26s CPU     19.28s WALL (    1845 calls)
     sum_band:bec :     36.90s CPU     36.90s WALL (    1845 calls)
     addusdens    :      2.93s CPU      3.84s WALL (       9 calls)
                                        0.00s GPU  (       9 calls)
     addusd:skk   :      0.00s CPU      0.00s WALL (      18 calls)
                                        0.00s GPU  (      18 calls)

     Called by *egterg:
     cdiaghg      :    117.12s CPU    117.17s WALL (    8711 calls)
     cegterg:over :     68.71s CPU     68.74s WALL (    7071 calls)
     cegterg:upda :     26.54s CPU     26.56s WALL (    7071 calls)
     cegterg:last :     67.50s CPU     67.53s WALL (    3958 calls)
     h_psi        :    541.56s CPU    545.15s WALL (    9121 calls)
     s_psi        :     66.19s CPU     66.23s WALL (    9121 calls)
     g_psi        :      0.45s CPU      0.45s WALL (    7071 calls)

     Called by h_psi:
     h_psi:calbec :     54.23s CPU     54.36s WALL (    9121 calls)
     vloc_psi     :    429.70s CPU    433.08s WALL (    9121 calls)
     add_vuspsi   :     57.08s CPU     57.17s WALL (    9121 calls)

     General routines
     calbec       :     73.47s CPU     73.62s WALL (   10966 calls)
     fft          :      0.61s CPU      0.62s WALL (     215 calls)
     ffts         :      0.31s CPU      0.31s WALL (      72 calls)
     fftw         :    350.45s CPU    353.01s WALL ( 1849360 calls)
     interpolate  :      0.31s CPU      0.31s WALL (      36 calls)

     Parallel routines

     PAW routines
     PAW_pot      :      5.46s CPU      5.67s WALL (       9 calls)
     PAW_symme    :      0.03s CPU      0.03s WALL (      18 calls)

     PWSCF        :  19m 9.99s CPU  19m18.05s WALL


   This run was terminated on:   4:39:35  31Jul2023            

=------------------------------------------------------------------------------=
   JOB DONE.
=------------------------------------------------------------------------------=
